ITEM: TIMESTEP
0
ITEM: NUMBER OF ATOMS
8000
ITEM: BOX BOUNDS pp pp pp
0.0000000000000000e+00 5.4299999999999997e+01
0.0000000000000000e+00 5.4299999999999997e+01
0.0000000000000000e+00 5.4299999999999997e+01
ITEM: ATOMS id type x y z
1 1 0 0 0
5 1 1.3575 1.3575 1.3575
9 1 5.43 0 0
13 1 6.7875 1.3575 1.3575
17 1 10.86 0 0
21 1 12.2175 1.3575 1.3575
25 1 16.29 0 0
29 1 17.6475 1.3575 1.3575
33 1 21.72 0 0
37 1 23.0775 1.3575 1.3575
41 1 27.15 0 0
45 1 28.5075 1.3575 1.3575
49 1 32.58 0 0
53 1 33.9375 1.3575 1.3575
57 1 38.01 0 0
61 1 39.3675 1.3575 1.3575
65 1 43.44 0 0
69 1 44.7975 1.3575 1.3575
73 1 48.87 0 0
77 1 50.2275 1.3575 1.3575
4 1 2.715 2.715 0
8 1 4.0725 4.0725 1.3575
12 1 8.145 2.715 0
16 1 9.5025 4.0725 1.3575
20 1 13.575 2.715 0
24 1 14.9325 4.0725 1.3575
28 1 19.005 2.715 0
32 1 20.3625 4.0725 1.3575
36 1 24.435 2.715 0
40 1 25.7925 4.0725 1.3575
44 1 29.865 2.715 0
48 1 31.2225 4.0725 1.3575
52 1 35.295 2.715 0
56 1 36.6525 4.0725 1.3575
60 1 40.725 2.715 0
64 1 42.0825 4.0725 1.3575
68 1 46.155 2.715 0
72 1 47.5125 4.0725 1.3575
76 1 51.585 2.715 0
80 1 52.9425 4.0725 1.3575
81 1 0 5.43 0
85 1 1.3575 6.7875 1.3575
89 1 5.43 5.43 0
93 1 6.7875 6.7875 1.3575
97 1 10.86 5.43 0
101 1 12.2175 6.7875 1.3575
105 1 16.29 5.43 0
109 1 17.6475 6.7875 1.3575
113 1 21.72 5.43 0
117 1 23.0775 6.7875 1.3575
121 1 27.15 5.43 0
125 1 28.5075 6.7875 1.3575
129 1 32.58 5.43 0
133 1 33.9375 6.7875 1.3575
137 1 38.01 5.43 0
141 1 39.3675 6.7875 1.3575
145 1 43.44 5.43 0
149 1 44.7975 6.7875 1.3575
153 1 48.87 5.43 0
157 1 50.2275 6.7875 1.3575
84 1 2.715 8.145 0
88 1 4.0725 9.5025 1.3575
92 1 8.145 8.145 0
96 1 9.5025 9.5025 1.3575
100 1 13.575 8.145 0
104 1 14.9325 9.5025 1.3575
108 1 19.005 8.145 0
112 1 20.3625 9.5025 1.3575
116 1 24.435 8.145 0
120 1 25.7925 9.5025 1.3575
124 1 29.865 8.145 0
128 1 31.2225 9.5025 1.3575
132 1 35.295 8.145 0
136 1 36.6525 9.5025 1.3575
140 1 40.725 8.145 0
144 1 42.0825 9.5025 1.3575
148 1 46.155 8.145 0
152 1 47.5125 9.5025 1.3575
156 1 51.585 8.145 0
160 1 52.9425 9.5025 1.3575
161 1 0 10.86 0
165 1 1.3575 12.2175 1.3575
169 1 5.43 10.86 0
173 1 6.7875 12.2175 1.3575
177 1 10.86 10.86 0
181 1 12.2175 12.2175 1.3575
185 1 16.29 10.86 0
189 1 17.6475 12.2175 1.3575
193 1 21.72 10.86 0
197 1 23.0775 12.2175 1.3575
201 1 27.15 10.86 0
205 1 28.5075 12.2175 1.3575
209 1 32.58 10.86 0
213 1 33.9375 12.2175 1.3575
217 1 38.01 10.86 0
221 1 39.3675 12.2175 1.3575
225 1 43.44 10.86 0
229 1 44.7975 12.2175 1.3575
233 1 48.87 10.86 0
237 1 50.2275 12.2175 1.3575
164 1 2.715 13.575 0
168 1 4.0725 14.9325 1.3575
172 1 8.145 13.575 0
176 1 9.5025 14.9325 1.3575
180 1 13.575 13.575 0
184 1 14.9325 14.9325 1.3575
188 1 19.005 13.575 0
192 1 20.3625 14.9325 1.3575
196 1 24.435 13.575 0
200 1 25.7925 14.9325 1.3575
204 1 29.865 13.575 0
208 1 31.2225 14.9325 1.3575
212 1 35.295 13.575 0
216 1 36.6525 14.9325 1.3575
220 1 40.725 13.575 0
224 1 42.0825 14.9325 1.3575
228 1 46.155 13.575 0
232 1 47.5125 14.9325 1.3575
236 1 51.585 13.575 0
240 1 52.9425 14.9325 1.3575
241 1 0 16.29 0
245 1 1.3575 17.6475 1.3575
249 1 5.43 16.29 0
253 1 6.7875 17.6475 1.3575
257 1 10.86 16.29 0
261 1 12.2175 17.6475 1.3575
265 1 16.29 16.29 0
269 1 17.6475 17.6475 1.3575
273 1 21.72 16.29 0
277 1 23.0775 17.6475 1.3575
281 1 27.15 16.29 0
285 1 28.5075 17.6475 1.3575
289 1 32.58 16.29 0
293 1 33.9375 17.6475 1.3575
297 1 38.01 16.29 0
301 1 39.3675 17.6475 1.3575
305 1 43.44 16.29 0
309 1 44.7975 17.6475 1.3575
313 1 48.87 16.29 0
317 1 50.2275 17.6475 1.3575
244 1 2.715 19.005 0
248 1 4.0725 20.3625 1.3575
252 1 8.145 19.005 0
256 1 9.5025 20.3625 1.3575
260 1 13.575 19.005 0
264 1 14.9325 20.3625 1.3575
268 1 19.005 19.005 0
272 1 20.3625 20.3625 1.3575
276 1 24.435 19.005 0
280 1 25.7925 20.3625 1.3575
284 1 29.865 19.005 0
288 1 31.2225 20.3625 1.3575
292 1 35.295 19.005 0
296 1 36.6525 20.3625 1.3575
300 1 40.725 19.005 0
304 1 42.0825 20.3625 1.3575
308 1 46.155 19.005 0
312 1 47.5125 20.3625 1.3575
316 1 51.585 19.005 0
320 1 52.9425 20.3625 1.3575
321 1 0 21.72 0
325 1 1.3575 23.0775 1.3575
329 1 5.43 21.72 0
333 1 6.7875 23.0775 1.3575
337 1 10.86 21.72 0
341 1 12.2175 23.0775 1.3575
345 1 16.29 21.72 0
349 1 17.6475 23.0775 1.3575
353 1 21.72 21.72 0
357 1 23.0775 23.0775 1.3575
361 1 27.15 21.72 0
365 1 28.5075 23.0775 1.3575
369 1 32.58 21.72 0
373 1 33.9375 23.0775 1.3575
377 1 38.01 21.72 0
381 1 39.3675 23.0775 1.3575
385 1 43.44 21.72 0
389 1 44.7975 23.0775 1.3575
393 1 48.87 21.72 0
397 1 50.2275 23.0775 1.3575
324 1 2.715 24.435 0
328 1 4.0725 25.7925 1.3575
332 1 8.145 24.435 0
336 1 9.5025 25.7925 1.3575
340 1 13.575 24.435 0
344 1 14.9325 25.7925 1.3575
348 1 19.005 24.435 0
352 1 20.3625 25.7925 1.3575
356 1 24.435 24.435 0
360 1 25.7925 25.7925 1.3575
364 1 29.865 24.435 0
368 1 31.2225 25.7925 1.3575
372 1 35.295 24.435 0
376 1 36.6525 25.7925 1.3575
380 1 40.725 24.435 0
384 1 42.0825 25.7925 1.3575
388 1 46.155 24.435 0
392 1 47.5125 25.7925 1.3575
396 1 51.585 24.435 0
400 1 52.9425 25.7925 1.3575
3 1 2.715 0 2.715
7 1 4.0725 1.3575 4.0725
11 1 8.145 0 2.715
15 1 9.5025 1.3575 4.0725
19 1 13.575 0 2.715
23 1 14.9325 1.3575 4.0725
27 1 19.005 0 2.715
31 1 20.3625 1.3575 4.0725
35 1 24.435 0 2.715
39 1 25.7925 1.3575 4.0725
43 1 29.865 0 2.715
47 1 31.2225 1.3575 4.0725
51 1 35.295 0 2.715
55 1 36.6525 1.3575 4.0725
59 1 40.725 0 2.715
63 1 42.0825 1.3575 4.0725
67 1 46.155 0 2.715
71 1 47.5125 1.3575 4.0725
75 1 51.585 0 2.715
79 1 52.9425 1.3575 4.0725
2 1 0 2.715 2.715
6 1 1.3575 4.0725 4.0725
10 1 5.43 2.715 2.715
14 1 6.7875 4.0725 4.0725
18 1 10.86 2.715 2.715
22 1 12.2175 4.0725 4.0725
26 1 16.29 2.715 2.715
30 1 17.6475 4.0725 4.0725
34 1 21.72 2.715 2.715
38 1 23.0775 4.0725 4.0725
42 1 27.15 2.715 2.715
46 1 28.5075 4.0725 4.0725
50 1 32.58 2.715 2.715
54 1 33.9375 4.0725 4.0725
58 1 38.01 2.715 2.715
62 1 39.3675 4.0725 4.0725
66 1 43.44 2.715 2.715
70 1 44.7975 4.0725 4.0725
74 1 48.87 2.715 2.715
78 1 50.2275 4.0725 4.0725
83 1 2.715 5.43 2.715
87 1 4.0725 6.7875 4.0725
91 1 8.145 5.43 2.715
95 1 9.5025 6.7875 4.0725
99 1 13.575 5.43 2.715
103 1 14.9325 6.7875 4.0725
107 1 19.005 5.43 2.715
111 1 20.3625 6.7875 4.0725
115 1 24.435 5.43 2.715
119 1 25.7925 6.7875 4.0725
123 1 29.865 5.43 2.715
127 1 31.2225 6.7875 4.0725
131 1 35.295 5.43 2.715
135 1 36.6525 6.7875 4.0725
139 1 40.725 5.43 2.715
143 1 42.0825 6.7875 4.0725
147 1 46.155 5.43 2.715
151 1 47.5125 6.7875 4.0725
155 1 51.585 5.43 2.715
159 1 52.9425 6.7875 4.0725
82 1 0 8.145 2.715
86 1 1.3575 9.5025 4.0725
90 1 5.43 8.145 2.715
94 1 6.7875 9.5025 4.0725
98 1 10.86 8.145 2.715
102 1 12.2175 9.5025 4.0725
106 1 16.29 8.145 2.715
110 1 17.6475 9.5025 4.0725
114 1 21.72 8.145 2.715
118 1 23.0775 9.5025 4.0725
122 1 27.15 8.145 2.715
126 1 28.5075 9.5025 4.0725
130 1 32.58 8.145 2.715
134 1 33.9375 9.5025 4.0725
138 1 38.01 8.145 2.715
142 1 39.3675 9.5025 4.0725
146 1 43.44 8.145 2.715
150 1 44.7975 9.5025 4.0725
154 1 48.87 8.145 2.715
158 1 50.2275 9.5025 4.0725
163 1 2.715 10.86 2.715
167 1 4.0725 12.2175 4.0725
171 1 8.145 10.86 2.715
175 1 9.5025 12.2175 4.0725
179 1 13.575 10.86 2.715
183 1 14.9325 12.2175 4.0725
187 1 19.005 10.86 2.715
191 1 20.3625 12.2175 4.0725
195 1 24.435 10.86 2.715
199 1 25.7925 12.2175 4.0725
203 1 29.865 10.86 2.715
207 1 31.2225 12.2175 4.0725
211 1 35.295 10.86 2.715
215 1 36.6525 12.2175 4.0725
219 1 40.725 10.86 2.715
223 1 42.0825 12.2175 4.0725
227 1 46.155 10.86 2.715
231 1 47.5125 12.2175 4.0725
235 1 51.585 10.86 2.715
239 1 52.9425 12.2175 4.0725
162 1 0 13.575 2.715
166 1 1.3575 14.9325 4.0725
170 1 5.43 13.575 2.715
174 1 6.7875 14.9325 4.0725
178 1 10.86 13.575 2.715
182 1 12.2175 14.9325 4.0725
186 1 16.29 13.575 2.715
190 1 17.6475 14.9325 4.0725
194 1 21.72 13.575 2.715
198 1 23.0775 14.9325 4.0725
202 1 27.15 13.575 2.715
206 1 28.5075 14.9325 4.0725
210 1 32.58 13.575 2.715
214 1 33.9375 14.9325 4.0725
218 1 38.01 13.575 2.715
222 1 39.3675 14.9325 4.0725
226 1 43.44 13.575 2.715
230 1 44.7975 14.9325 4.0725
234 1 48.87 13.575 2.715
238 1 50.2275 14.9325 4.0725
243 1 2.715 16.29 2.715
247 1 4.0725 17.6475 4.0725
251 1 8.145 16.29 2.715
255 1 9.5025 17.6475 4.0725
259 1 13.575 16.29 2.715
263 1 14.9325 17.6475 4.0725
267 1 19.005 16.29 2.715
271 1 20.3625 17.6475 4.0725
275 1 24.435 16.29 2.715
279 1 25.7925 17.6475 4.0725
283 1 29.865 16.29 2.715
287 1 31.2225 17.6475 4.0725
291 1 35.295 16.29 2.715
295 1 36.6525 17.6475 4.0725
299 1 40.725 16.29 2.715
303 1 42.0825 17.6475 4.0725
307 1 46.155 16.29 2.715
311 1 47.5125 17.6475 4.0725
315 1 51.585 16.29 2.715
319 1 52.9425 17.6475 4.0725
242 1 0 19.005 2.715
246 1 1.3575 20.3625 4.0725
250 1 5.43 19.005 2.715
254 1 6.7875 20.3625 4.0725
258 1 10.86 19.005 2.715
262 1 12.2175 20.3625 4.0725
266 1 16.29 19.005 2.715
270 1 17.6475 20.3625 4.0725
274 1 21.72 19.005 2.715
278 1 23.0775 20.3625 4.0725
282 1 27.15 19.005 2.715
286 1 28.5075 20.3625 4.0725
290 1 32.58 19.005 2.715
294 1 33.9375 20.3625 4.0725
298 1 38.01 19.005 2.715
302 1 39.3675 20.3625 4.0725
306 1 43.44 19.005 2.715
310 1 44.7975 20.3625 4.0725
314 1 48.87 19.005 2.715
318 1 50.2275 20.3625 4.0725
323 1 2.715 21.72 2.715
327 1 4.0725 23.0775 4.0725
331 1 8.145 21.72 2.715
335 1 9.5025 23.0775 4.0725
339 1 13.575 21.72 2.715
343 1 14.9325 23.0775 4.0725
347 1 19.005 21.72 2.715
351 1 20.3625 23.0775 4.0725
355 1 24.435 21.72 2.715
359 1 25.7925 23.0775 4.0725
363 1 29.865 21.72 2.715
367 1 31.2225 23.0775 4.0725
371 1 35.295 21.72 2.715
375 1 36.6525 23.0775 4.0725
379 1 40.725 21.72 2.715
383 1 42.0825 23.0775 4.0725
387 1 46.155 21.72 2.715
391 1 47.5125 23.0775 4.0725
395 1 51.585 21.72 2.715
399 1 52.9425 23.0775 4.0725
322 1 0 24.435 2.715
326 1 1.3575 25.7925 4.0725
330 1 5.43 24.435 2.715
334 1 6.7875 25.7925 4.0725
338 1 10.86 24.435 2.715
342 1 12.2175 25.7925 4.0725
346 1 16.29 24.435 2.715
350 1 17.6475 25.7925 4.0725
354 1 21.72 24.435 2.715
358 1 23.0775 25.7925 4.0725
362 1 27.15 24.435 2.715
366 1 28.5075 25.7925 4.0725
370 1 32.58 24.435 2.715
374 1 33.9375 25.7925 4.0725
378 1 38.01 24.435 2.715
382 1 39.3675 25.7925 4.0725
386 1 43.44 24.435 2.715
390 1 44.7975 25.7925 4.0725
394 1 48.87 24.435 2.715
398 1 50.2275 25.7925 4.0725
401 1 0 0 5.43
405 1 1.3575 1.3575 6.7875
409 1 5.43 0 5.43
413 1 6.7875 1.3575 6.7875
417 1 10.86 0 5.43
421 1 12.2175 1.3575 6.7875
425 1 16.29 0 5.43
429 1 17.6475 1.3575 6.7875
433 1 21.72 0 5.43
437 1 23.0775 1.3575 6.7875
441 1 27.15 0 5.43
445 1 28.5075 1.3575 6.7875
449 1 32.58 0 5.43
453 1 33.9375 1.3575 6.7875
457 1 38.01 0 5.43
461 1 39.3675 1.3575 6.7875
465 1 43.44 0 5.43
469 1 44.7975 1.3575 6.7875
473 1 48.87 0 5.43
477 1 50.2275 1.3575 6.7875
404 1 2.715 2.715 5.43
408 1 4.0725 4.0725 6.7875
412 1 8.145 2.715 5.43
416 1 9.5025 4.0725 6.7875
420 1 13.575 2.715 5.43
424 1 14.9325 4.0725 6.7875
428 1 19.005 2.715 5.43
432 1 20.3625 4.0725 6.7875
436 1 24.435 2.715 5.43
440 1 25.7925 4.0725 6.7875
444 1 29.865 2.715 5.43
448 1 31.2225 4.0725 6.7875
452 1 35.295 2.715 5.43
456 1 36.6525 4.0725 6.7875
460 1 40.725 2.715 5.43
464 1 42.0825 4.0725 6.7875
468 1 46.155 2.715 5.43
472 1 47.5125 4.0725 6.7875
476 1 51.585 2.715 5.43
480 1 52.9425 4.0725 6.7875
481 1 0 5.43 5.43
485 1 1.3575 6.7875 6.7875
489 1 5.43 5.43 5.43
493 1 6.7875 6.7875 6.7875
497 1 10.86 5.43 5.43
501 1 12.2175 6.7875 6.7875
505 1 16.29 5.43 5.43
509 1 17.6475 6.7875 6.7875
513 1 21.72 5.43 5.43
517 1 23.0775 6.7875 6.7875
521 1 27.15 5.43 5.43
525 1 28.5075 6.7875 6.7875
529 1 32.58 5.43 5.43
533 1 33.9375 6.7875 6.7875
537 1 38.01 5.43 5.43
541 1 39.3675 6.7875 6.7875
545 1 43.44 5.43 5.43
549 1 44.7975 6.7875 6.7875
553 1 48.87 5.43 5.43
557 1 50.2275 6.7875 6.7875
484 1 2.715 8.145 5.43
488 1 4.0725 9.5025 6.7875
492 1 8.145 8.145 5.43
496 1 9.5025 9.5025 6.7875
500 1 13.575 8.145 5.43
504 1 14.9325 9.5025 6.7875
508 1 19.005 8.145 5.43
512 1 20.3625 9.5025 6.7875
516 1 24.435 8.145 5.43
520 1 25.7925 9.5025 6.7875
524 1 29.865 8.145 5.43
528 1 31.2225 9.5025 6.7875
532 1 35.295 8.145 5.43
536 1 36.6525 9.5025 6.7875
540 1 40.725 8.145 5.43
544 1 42.0825 9.5025 6.7875
548 1 46.155 8.145 5.43
552 1 47.5125 9.5025 6.7875
556 1 51.585 8.145 5.43
560 1 52.9425 9.5025 6.7875
561 1 0 10.86 5.43
565 1 1.3575 12.2175 6.7875
569 1 5.43 10.86 5.43
573 1 6.7875 12.2175 6.7875
577 1 10.86 10.86 5.43
581 1 12.2175 12.2175 6.7875
585 1 16.29 10.86 5.43
589 1 17.6475 12.2175 6.7875
593 1 21.72 10.86 5.43
597 1 23.0775 12.2175 6.7875
601 1 27.15 10.86 5.43
605 1 28.5075 12.2175 6.7875
609 1 32.58 10.86 5.43
613 1 33.9375 12.2175 6.7875
617 1 38.01 10.86 5.43
621 1 39.3675 12.2175 6.7875
625 1 43.44 10.86 5.43
629 1 44.7975 12.2175 6.7875
633 1 48.87 10.86 5.43
637 1 50.2275 12.2175 6.7875
564 1 2.715 13.575 5.43
568 1 4.0725 14.9325 6.7875
572 1 8.145 13.575 5.43
576 1 9.5025 14.9325 6.7875
580 1 13.575 13.575 5.43
584 1 14.9325 14.9325 6.7875
588 1 19.005 13.575 5.43
592 1 20.3625 14.9325 6.7875
596 1 24.435 13.575 5.43
600 1 25.7925 14.9325 6.7875
604 1 29.865 13.575 5.43
608 1 31.2225 14.9325 6.7875
612 1 35.295 13.575 5.43
616 1 36.6525 14.9325 6.7875
620 1 40.725 13.575 5.43
624 1 42.0825 14.9325 6.7875
628 1 46.155 13.575 5.43
632 1 47.5125 14.9325 6.7875
636 1 51.585 13.575 5.43
640 1 52.9425 14.9325 6.7875
641 1 0 16.29 5.43
645 1 1.3575 17.6475 6.7875
649 1 5.43 16.29 5.43
653 1 6.7875 17.6475 6.7875
657 1 10.86 16.29 5.43
661 1 12.2175 17.6475 6.7875
665 1 16.29 16.29 5.43
669 1 17.6475 17.6475 6.7875
673 1 21.72 16.29 5.43
677 1 23.0775 17.6475 6.7875
681 1 27.15 16.29 5.43
685 1 28.5075 17.6475 6.7875
689 1 32.58 16.29 5.43
693 1 33.9375 17.6475 6.7875
697 1 38.01 16.29 5.43
701 1 39.3675 17.6475 6.7875
705 1 43.44 16.29 5.43
709 1 44.7975 17.6475 6.7875
713 1 48.87 16.29 5.43
717 1 50.2275 17.6475 6.7875
644 1 2.715 19.005 5.43
648 1 4.0725 20.3625 6.7875
652 1 8.145 19.005 5.43
656 1 9.5025 20.3625 6.7875
660 1 13.575 19.005 5.43
664 1 14.9325 20.3625 6.7875
668 1 19.005 19.005 5.43
672 1 20.3625 20.3625 6.7875
676 1 24.435 19.005 5.43
680 1 25.7925 20.3625 6.7875
684 1 29.865 19.005 5.43
688 1 31.2225 20.3625 6.7875
692 1 35.295 19.005 5.43
696 1 36.6525 20.3625 6.7875
700 1 40.725 19.005 5.43
704 1 42.0825 20.3625 6.7875
708 1 46.155 19.005 5.43
712 1 47.5125 20.3625 6.7875
716 1 51.585 19.005 5.43
720 1 52.9425 20.3625 6.7875
721 1 0 21.72 5.43
725 1 1.3575 23.0775 6.7875
729 1 5.43 21.72 5.43
733 1 6.7875 23.0775 6.7875
737 1 10.86 21.72 5.43
741 1 12.2175 23.0775 6.7875
745 1 16.29 21.72 5.43
749 1 17.6475 23.0775 6.7875
753 1 21.72 21.72 5.43
757 1 23.0775 23.0775 6.7875
761 1 27.15 21.72 5.43
765 1 28.5075 23.0775 6.7875
769 1 32.58 21.72 5.43
773 1 33.9375 23.0775 6.7875
777 1 38.01 21.72 5.43
781 1 39.3675 23.0775 6.7875
785 1 43.44 21.72 5.43
789 1 44.7975 23.0775 6.7875
793 1 48.87 21.72 5.43
797 1 50.2275 23.0775 6.7875
724 1 2.715 24.435 5.43
728 1 4.0725 25.7925 6.7875
732 1 8.145 24.435 5.43
736 1 9.5025 25.7925 6.7875
740 1 13.575 24.435 5.43
744 1 14.9325 25.7925 6.7875
748 1 19.005 24.435 5.43
752 1 20.3625 25.7925 6.7875
756 1 24.435 24.435 5.43
760 1 25.7925 25.7925 6.7875
764 1 29.865 24.435 5.43
768 1 31.2225 25.7925 6.7875
772 1 35.295 24.435 5.43
776 1 36.6525 25.7925 6.7875
780 1 40.725 24.435 5.43
784 1 42.0825 25.7925 6.7875
788 1 46.155 24.435 5.43
792 1 47.5125 25.7925 6.7875
796 1 51.585 24.435 5.43
800 1 52.9425 25.7925 6.7875
403 1 2.715 0 8.145
407 1 4.0725 1.3575 9.5025
411 1 8.145 0 8.145
415 1 9.5025 1.3575 9.5025
419 1 13.575 0 8.145
423 1 14.9325 1.3575 9.5025
427 1 19.005 0 8.145
431 1 20.3625 1.3575 9.5025
435 1 24.435 0 8.145
439 1 25.7925 1.3575 9.5025
443 1 29.865 0 8.145
447 1 31.2225 1.3575 9.5025
451 1 35.295 0 8.145
455 1 36.6525 1.3575 9.5025
459 1 40.725 0 8.145
463 1 42.0825 1.3575 9.5025
467 1 46.155 0 8.145
471 1 47.5125 1.3575 9.5025
475 1 51.585 0 8.145
479 1 52.9425 1.3575 9.5025
402 1 0 2.715 8.145
406 1 1.3575 4.0725 9.5025
410 1 5.43 2.715 8.145
414 1 6.7875 4.0725 9.5025
418 1 10.86 2.715 8.145
422 1 12.2175 4.0725 9.5025
426 1 16.29 2.715 8.145
430 1 17.6475 4.0725 9.5025
434 1 21.72 2.715 8.145
438 1 23.0775 4.0725 9.5025
442 1 27.15 2.715 8.145
446 1 28.5075 4.0725 9.5025
450 1 32.58 2.715 8.145
454 1 33.9375 4.0725 9.5025
458 1 38.01 2.715 8.145
462 1 39.3675 4.0725 9.5025
466 1 43.44 2.715 8.145
470 1 44.7975 4.0725 9.5025
474 1 48.87 2.715 8.145
478 1 50.2275 4.0725 9.5025
483 1 2.715 5.43 8.145
487 1 4.0725 6.7875 9.5025
491 1 8.145 5.43 8.145
495 1 9.5025 6.7875 9.5025
499 1 13.575 5.43 8.145
503 1 14.9325 6.7875 9.5025
507 1 19.005 5.43 8.145
511 1 20.3625 6.7875 9.5025
515 1 24.435 5.43 8.145
519 1 25.7925 6.7875 9.5025
523 1 29.865 5.43 8.145
527 1 31.2225 6.7875 9.5025
531 1 35.295 5.43 8.145
535 1 36.6525 6.7875 9.5025
539 1 40.725 5.43 8.145
543 1 42.0825 6.7875 9.5025
547 1 46.155 5.43 8.145
551 1 47.5125 6.7875 9.5025
555 1 51.585 5.43 8.145
559 1 52.9425 6.7875 9.5025
482 1 0 8.145 8.145
486 1 1.3575 9.5025 9.5025
490 1 5.43 8.145 8.145
494 1 6.7875 9.5025 9.5025
498 1 10.86 8.145 8.145
502 1 12.2175 9.5025 9.5025
506 1 16.29 8.145 8.145
510 1 17.6475 9.5025 9.5025
514 1 21.72 8.145 8.145
518 1 23.0775 9.5025 9.5025
522 1 27.15 8.145 8.145
526 1 28.5075 9.5025 9.5025
530 1 32.58 8.145 8.145
534 1 33.9375 9.5025 9.5025
538 1 38.01 8.145 8.145
542 1 39.3675 9.5025 9.5025
546 1 43.44 8.145 8.145
550 1 44.7975 9.5025 9.5025
554 1 48.87 8.145 8.145
558 1 50.2275 9.5025 9.5025
563 1 2.715 10.86 8.145
567 1 4.0725 12.2175 9.5025
571 1 8.145 10.86 8.145
575 1 9.5025 12.2175 9.5025
579 1 13.575 10.86 8.145
583 1 14.9325 12.2175 9.5025
587 1 19.005 10.86 8.145
591 1 20.3625 12.2175 9.5025
595 1 24.435 10.86 8.145
599 1 25.7925 12.2175 9.5025
603 1 29.865 10.86 8.145
607 1 31.2225 12.2175 9.5025
611 1 35.295 10.86 8.145
615 1 36.6525 12.2175 9.5025
619 1 40.725 10.86 8.145
623 1 42.0825 12.2175 9.5025
627 1 46.155 10.86 8.145
631 1 47.5125 12.2175 9.5025
635 1 51.585 10.86 8.145
639 1 52.9425 12.2175 9.5025
562 1 0 13.575 8.145
566 1 1.3575 14.9325 9.5025
570 1 5.43 13.575 8.145
574 1 6.7875 14.9325 9.5025
578 1 10.86 13.575 8.145
582 1 12.2175 14.9325 9.5025
586 1 16.29 13.575 8.145
590 1 17.6475 14.9325 9.5025
594 1 21.72 13.575 8.145
598 1 23.0775 14.9325 9.5025
602 1 27.15 13.575 8.145
606 1 28.5075 14.9325 9.5025
610 1 32.58 13.575 8.145
614 1 33.9375 14.9325 9.5025
618 1 38.01 13.575 8.145
622 1 39.3675 14.9325 9.5025
626 1 43.44 13.575 8.145
630 1 44.7975 14.9325 9.5025
634 1 48.87 13.575 8.145
638 1 50.2275 14.9325 9.5025
643 1 2.715 16.29 8.145
647 1 4.0725 17.6475 9.5025
651 1 8.145 16.29 8.145
655 1 9.5025 17.6475 9.5025
659 1 13.575 16.29 8.145
663 1 14.9325 17.6475 9.5025
667 1 19.005 16.29 8.145
671 1 20.3625 17.6475 9.5025
675 1 24.435 16.29 8.145
679 1 25.7925 17.6475 9.5025
683 1 29.865 16.29 8.145
687 1 31.2225 17.6475 9.5025
691 1 35.295 16.29 8.145
695 1 36.6525 17.6475 9.5025
699 1 40.725 16.29 8.145
703 1 42.0825 17.6475 9.5025
707 1 46.155 16.29 8.145
711 1 47.5125 17.6475 9.5025
715 1 51.585 16.29 8.145
719 1 52.9425 17.6475 9.5025
642 1 0 19.005 8.145
646 1 1.3575 20.3625 9.5025
650 1 5.43 19.005 8.145
654 1 6.7875 20.3625 9.5025
658 1 10.86 19.005 8.145
662 1 12.2175 20.3625 9.5025
666 1 16.29 19.005 8.145
670 1 17.6475 20.3625 9.5025
674 1 21.72 19.005 8.145
678 1 23.0775 20.3625 9.5025
682 1 27.15 19.005 8.145
686 1 28.5075 20.3625 9.5025
690 1 32.58 19.005 8.145
694 1 33.9375 20.3625 9.5025
698 1 38.01 19.005 8.145
702 1 39.3675 20.3625 9.5025
706 1 43.44 19.005 8.145
710 1 44.7975 20.3625 9.5025
714 1 48.87 19.005 8.145
718 1 50.2275 20.3625 9.5025
723 1 2.715 21.72 8.145
727 1 4.0725 23.0775 9.5025
731 1 8.145 21.72 8.145
735 1 9.5025 23.0775 9.5025
739 1 13.575 21.72 8.145
743 1 14.9325 23.0775 9.5025
747 1 19.005 21.72 8.145
751 1 20.3625 23.0775 9.5025
755 1 24.435 21.72 8.145
759 1 25.7925 23.0775 9.5025
763 1 29.865 21.72 8.145
767 1 31.2225 23.0775 9.5025
771 1 35.295 21.72 8.145
775 1 36.6525 23.0775 9.5025
779 1 40.725 21.72 8.145
783 1 42.0825 23.0775 9.5025
787 1 46.155 21.72 8.145
791 1 47.5125 23.0775 9.5025
795 1 51.585 21.72 8.145
799 1 52.9425 23.0775 9.5025
722 1 0 24.435 8.145
726 1 1.3575 25.7925 9.5025
730 1 5.43 24.435 8.145
734 1 6.7875 25.7925 9.5025
738 1 10.86 24.435 8.145
742 1 12.2175 25.7925 9.5025
746 1 16.29 24.435 8.145
750 1 17.6475 25.7925 9.5025
754 1 21.72 24.435 8.145
758 1 23.0775 25.7925 9.5025
762 1 27.15 24.435 8.145
766 1 28.5075 25.7925 9.5025
770 1 32.58 24.435 8.145
774 1 33.9375 25.7925 9.5025
778 1 38.01 24.435 8.145
782 1 39.3675 25.7925 9.5025
786 1 43.44 24.435 8.145
790 1 44.7975 25.7925 9.5025
794 1 48.87 24.435 8.145
798 1 50.2275 25.7925 9.5025
801 1 0 0 10.86
805 1 1.3575 1.3575 12.2175
809 1 5.43 0 10.86
813 1 6.7875 1.3575 12.2175
817 1 10.86 0 10.86
821 1 12.2175 1.3575 12.2175
825 1 16.29 0 10.86
829 1 17.6475 1.3575 12.2175
833 1 21.72 0 10.86
837 1 23.0775 1.3575 12.2175
841 1 27.15 0 10.86
845 1 28.5075 1.3575 12.2175
849 1 32.58 0 10.86
853 1 33.9375 1.3575 12.2175
857 1 38.01 0 10.86
861 1 39.3675 1.3575 12.2175
865 1 43.44 0 10.86
869 1 44.7975 1.3575 12.2175
873 1 48.87 0 10.86
877 1 50.2275 1.3575 12.2175
804 1 2.715 2.715 10.86
808 1 4.0725 4.0725 12.2175
812 1 8.145 2.715 10.86
816 1 9.5025 4.0725 12.2175
820 1 13.575 2.715 10.86
824 1 14.9325 4.0725 12.2175
828 1 19.005 2.715 10.86
832 1 20.3625 4.0725 12.2175
836 1 24.435 2.715 10.86
840 1 25.7925 4.0725 12.2175
844 1 29.865 2.715 10.86
848 1 31.2225 4.0725 12.2175
852 1 35.295 2.715 10.86
856 1 36.6525 4.0725 12.2175
860 1 40.725 2.715 10.86
864 1 42.0825 4.0725 12.2175
868 1 46.155 2.715 10.86
872 1 47.5125 4.0725 12.2175
876 1 51.585 2.715 10.86
880 1 52.9425 4.0725 12.2175
881 1 0 5.43 10.86
885 1 1.3575 6.7875 12.2175
889 1 5.43 5.43 10.86
893 1 6.7875 6.7875 12.2175
897 1 10.86 5.43 10.86
901 1 12.2175 6.7875 12.2175
905 1 16.29 5.43 10.86
909 1 17.6475 6.7875 12.2175
913 1 21.72 5.43 10.86
917 1 23.0775 6.7875 12.2175
921 1 27.15 5.43 10.86
925 1 28.5075 6.7875 12.2175
929 1 32.58 5.43 10.86
933 1 33.9375 6.7875 12.2175
937 1 38.01 5.43 10.86
941 1 39.3675 6.7875 12.2175
945 1 43.44 5.43 10.86
949 1 44.7975 6.7875 12.2175
953 1 48.87 5.43 10.86
957 1 50.2275 6.7875 12.2175
884 1 2.715 8.145 10.86
888 1 4.0725 9.5025 12.2175
892 1 8.145 8.145 10.86
896 1 9.5025 9.5025 12.2175
900 1 13.575 8.145 10.86
904 1 14.9325 9.5025 12.2175
908 1 19.005 8.145 10.86
912 1 20.3625 9.5025 12.2175
916 1 24.435 8.145 10.86
920 1 25.7925 9.5025 12.2175
924 1 29.865 8.145 10.86
928 1 31.2225 9.5025 12.2175
932 1 35.295 8.145 10.86
936 1 36.6525 9.5025 12.2175
940 1 40.725 8.145 10.86
944 1 42.0825 9.5025 12.2175
948 1 46.155 8.145 10.86
952 1 47.5125 9.5025 12.2175
956 1 51.585 8.145 10.86
960 1 52.9425 9.5025 12.2175
961 1 0 10.86 10.86
965 1 1.3575 12.2175 12.2175
969 1 5.43 10.86 10.86
973 1 6.7875 12.2175 12.2175
977 1 10.86 10.86 10.86
981 1 12.2175 12.2175 12.2175
985 1 16.29 10.86 10.86
989 1 17.6475 12.2175 12.2175
993 1 21.72 10.86 10.86
997 1 23.0775 12.2175 12.2175
1001 1 27.15 10.86 10.86
1005 1 28.5075 12.2175 12.2175
1009 1 32.58 10.86 10.86
1013 1 33.9375 12.2175 12.2175
1017 1 38.01 10.86 10.86
1021 1 39.3675 12.2175 12.2175
1025 1 43.44 10.86 10.86
1029 1 44.7975 12.2175 12.2175
1033 1 48.87 10.86 10.86
1037 1 50.2275 12.2175 12.2175
964 1 2.715 13.575 10.86
968 1 4.0725 14.9325 12.2175
972 1 8.145 13.575 10.86
976 1 9.5025 14.9325 12.2175
980 1 13.575 13.575 10.86
984 1 14.9325 14.9325 12.2175
988 1 19.005 13.575 10.86
992 1 20.3625 14.9325 12.2175
996 1 24.435 13.575 10.86
1000 1 25.7925 14.9325 12.2175
1004 1 29.865 13.575 10.86
1008 1 31.2225 14.9325 12.2175
1012 1 35.295 13.575 10.86
1016 1 36.6525 14.9325 12.2175
1020 1 40.725 13.575 10.86
1024 1 42.0825 14.9325 12.2175
1028 1 46.155 13.575 10.86
1032 1 47.5125 14.9325 12.2175
1036 1 51.585 13.575 10.86
1040 1 52.9425 14.9325 12.2175
1041 1 0 16.29 10.86
1045 1 1.3575 17.6475 12.2175
1049 1 5.43 16.29 10.86
1053 1 6.7875 17.6475 12.2175
1057 1 10.86 16.29 10.86
1061 1 12.2175 17.6475 12.2175
1065 1 16.29 16.29 10.86
1069 1 17.6475 17.6475 12.2175
1073 1 21.72 16.29 10.86
1077 1 23.0775 17.6475 12.2175
1081 1 27.15 16.29 10.86
1085 1 28.5075 17.6475 12.2175
1089 1 32.58 16.29 10.86
1093 1 33.9375 17.6475 12.2175
1097 1 38.01 16.29 10.86
1101 1 39.3675 17.6475 12.2175
1105 1 43.44 16.29 10.86
1109 1 44.7975 17.6475 12.2175
1113 1 48.87 16.29 10.86
1117 1 50.2275 17.6475 12.2175
1044 1 2.715 19.005 10.86
1048 1 4.0725 20.3625 12.2175
1052 1 8.145 19.005 10.86
1056 1 9.5025 20.3625 12.2175
1060 1 13.575 19.005 10.86
1064 1 14.9325 20.3625 12.2175
1068 1 19.005 19.005 10.86
1072 1 20.3625 20.3625 12.2175
1076 1 24.435 19.005 10.86
1080 1 25.7925 20.3625 12.2175
1084 1 29.865 19.005 10.86
1088 1 31.2225 20.3625 12.2175
1092 1 35.295 19.005 10.86
1096 1 36.6525 20.3625 12.2175
1100 1 40.725 19.005 10.86
1104 1 42.0825 20.3625 12.2175
1108 1 46.155 19.005 10.86
1112 1 47.5125 20.3625 12.2175
1116 1 51.585 19.005 10.86
1120 1 52.9425 20.3625 12.2175
1121 1 0 21.72 10.86
1125 1 1.3575 23.0775 12.2175
1129 1 5.43 21.72 10.86
1133 1 6.7875 23.0775 12.2175
1137 1 10.86 21.72 10.86
1141 1 12.2175 23.0775 12.2175
1145 1 16.29 21.72 10.86
1149 1 17.6475 23.0775 12.2175
1153 1 21.72 21.72 10.86
1157 1 23.0775 23.0775 12.2175
1161 1 27.15 21.72 10.86
1165 1 28.5075 23.0775 12.2175
1169 1 32.58 21.72 10.86
1173 1 33.9375 23.0775 12.2175
1177 1 38.01 21.72 10.86
1181 1 39.3675 23.0775 12.2175
1185 1 43.44 21.72 10.86
1189 1 44.7975 23.0775 12.2175
1193 1 48.87 21.72 10.86
1197 1 50.2275 23.0775 12.2175
1124 1 2.715 24.435 10.86
1128 1 4.0725 25.7925 12.2175
1132 1 8.145 24.435 10.86
1136 1 9.5025 25.7925 12.2175
1140 1 13.575 24.435 10.86
1144 1 14.9325 25.7925 12.2175
1148 1 19.005 24.435 10.86
1152 1 20.3625 25.7925 12.2175
1156 1 24.435 24.435 10.86
1160 1 25.7925 25.7925 12.2175
1164 1 29.865 24.435 10.86
1168 1 31.2225 25.7925 12.2175
1172 1 35.295 24.435 10.86
1176 1 36.6525 25.7925 12.2175
1180 1 40.725 24.435 10.86
1184 1 42.0825 25.7925 12.2175
1188 1 46.155 24.435 10.86
1192 1 47.5125 25.7925 12.2175
1196 1 51.585 24.435 10.86
1200 1 52.9425 25.7925 12.2175
803 1 2.715 0 13.575
807 1 4.0725 1.3575 14.9325
811 1 8.145 0 13.575
815 1 9.5025 1.3575 14.9325
819 1 13.575 0 13.575
823 1 14.9325 1.3575 14.9325
827 1 19.005 0 13.575
831 1 20.3625 1.3575 14.9325
835 1 24.435 0 13.575
839 1 25.7925 1.3575 14.9325
843 1 29.865 0 13.575
847 1 31.2225 1.3575 14.9325
851 1 35.295 0 13.575
855 1 36.6525 1.3575 14.9325
859 1 40.725 0 13.575
863 1 42.0825 1.3575 14.9325
867 1 46.155 0 13.575
871 1 47.5125 1.3575 14.9325
875 1 51.585 0 13.575
879 1 52.9425 1.3575 14.9325
802 1 0 2.715 13.575
806 1 1.3575 4.0725 14.9325
810 1 5.43 2.715 13.575
814 1 6.7875 4.0725 14.9325
818 1 10.86 2.715 13.575
822 1 12.2175 4.0725 14.9325
826 1 16.29 2.715 13.575
830 1 17.6475 4.0725 14.9325
834 1 21.72 2.715 13.575
838 1 23.0775 4.0725 14.9325
842 1 27.15 2.715 13.575
846 1 28.5075 4.0725 14.9325
850 1 32.58 2.715 13.575
854 1 33.9375 4.0725 14.9325
858 1 38.01 2.715 13.575
862 1 39.3675 4.0725 14.9325
866 1 43.44 2.715 13.575
870 1 44.7975 4.0725 14.9325
874 1 48.87 2.715 13.575
878 1 50.2275 4.0725 14.9325
883 1 2.715 5.43 13.575
887 1 4.0725 6.7875 14.9325
891 1 8.145 5.43 13.575
895 1 9.5025 6.7875 14.9325
899 1 13.575 5.43 13.575
903 1 14.9325 6.7875 14.9325
907 1 19.005 5.43 13.575
911 1 20.3625 6.7875 14.9325
915 1 24.435 5.43 13.575
919 1 25.7925 6.7875 14.9325
923 1 29.865 5.43 13.575
927 1 31.2225 6.7875 14.9325
931 1 35.295 5.43 13.575
935 1 36.6525 6.7875 14.9325
939 1 40.725 5.43 13.575
943 1 42.0825 6.7875 14.9325
947 1 46.155 5.43 13.575
951 1 47.5125 6.7875 14.9325
955 1 51.585 5.43 13.575
959 1 52.9425 6.7875 14.9325
882 1 0 8.145 13.575
886 1 1.3575 9.5025 14.9325
890 1 5.43 8.145 13.575
894 1 6.7875 9.5025 14.9325
898 1 10.86 8.145 13.575
902 1 12.2175 9.5025 14.9325
906 1 16.29 8.145 13.575
910 1 17.6475 9.5025 14.9325
914 1 21.72 8.145 13.575
918 1 23.0775 9.5025 14.9325
922 1 27.15 8.145 13.575
926 1 28.5075 9.5025 14.9325
930 1 32.58 8.145 13.575
934 1 33.9375 9.5025 14.9325
938 1 38.01 8.145 13.575
942 1 39.3675 9.5025 14.9325
946 1 43.44 8.145 13.575
950 1 44.7975 9.5025 14.9325
954 1 48.87 8.145 13.575
958 1 50.2275 9.5025 14.9325
963 1 2.715 10.86 13.575
967 1 4.0725 12.2175 14.9325
971 1 8.145 10.86 13.575
975 1 9.5025 12.2175 14.9325
979 1 13.575 10.86 13.575
983 1 14.9325 12.2175 14.9325
987 1 19.005 10.86 13.575
991 1 20.3625 12.2175 14.9325
995 1 24.435 10.86 13.575
999 1 25.7925 12.2175 14.9325
1003 1 29.865 10.86 13.575
1007 1 31.2225 12.2175 14.9325
1011 1 35.295 10.86 13.575
1015 1 36.6525 12.2175 14.9325
1019 1 40.725 10.86 13.575
1023 1 42.0825 12.2175 14.9325
1027 1 46.155 10.86 13.575
1031 1 47.5125 12.2175 14.9325
1035 1 51.585 10.86 13.575
1039 1 52.9425 12.2175 14.9325
962 1 0 13.575 13.575
966 1 1.3575 14.9325 14.9325
970 1 5.43 13.575 13.575
974 1 6.7875 14.9325 14.9325
978 1 10.86 13.575 13.575
982 1 12.2175 14.9325 14.9325
986 1 16.29 13.575 13.575
990 1 17.6475 14.9325 14.9325
994 1 21.72 13.575 13.575
998 1 23.0775 14.9325 14.9325
1002 1 27.15 13.575 13.575
1006 1 28.5075 14.9325 14.9325
1010 1 32.58 13.575 13.575
1014 1 33.9375 14.9325 14.9325
1018 1 38.01 13.575 13.575
1022 1 39.3675 14.9325 14.9325
1026 1 43.44 13.575 13.575
1030 1 44.7975 14.9325 14.9325
1034 1 48.87 13.575 13.575
1038 1 50.2275 14.9325 14.9325
1043 1 2.715 16.29 13.575
1047 1 4.0725 17.6475 14.9325
1051 1 8.145 16.29 13.575
1055 1 9.5025 17.6475 14.9325
1059 1 13.575 16.29 13.575
1063 1 14.9325 17.6475 14.9325
1067 1 19.005 16.29 13.575
1071 1 20.3625 17.6475 14.9325
1075 1 24.435 16.29 13.575
1079 1 25.7925 17.6475 14.9325
1083 1 29.865 16.29 13.575
1087 1 31.2225 17.6475 14.9325
1091 1 35.295 16.29 13.575
1095 1 36.6525 17.6475 14.9325
1099 1 40.725 16.29 13.575
1103 1 42.0825 17.6475 14.9325
1107 1 46.155 16.29 13.575
1111 1 47.5125 17.6475 14.9325
1115 1 51.585 16.29 13.575
1119 1 52.9425 17.6475 14.9325
1042 1 0 19.005 13.575
1046 1 1.3575 20.3625 14.9325
1050 1 5.43 19.005 13.575
1054 1 6.7875 20.3625 14.9325
1058 1 10.86 19.005 13.575
1062 1 12.2175 20.3625 14.9325