ITEM: TIMESTEP
0
ITEM: NUMBER OF ATOMS
8000
ITEM: BOX BOUNDS pp pp pp
0.0000000000000000e+00 5.4299999999999997e+01
0.0000000000000000e+00 5.4299999999999997e+01
0.0000000000000000e+00 5.4299999999999997e+01
ITEM: ATOMS id type x y z
1 1 0 0 0
5 1 1.3575 1.3575 1.3575
4 1 2.715 2.715 0
9 1 5.43 0 0
13 1 6.7875 1.3575 1.3575
12 1 8.145 2.715 0
17 1 10.86 0 0
21 1 12.2175 1.3575 1.3575
20 1 13.575 2.715 0
25 1 16.29 0 0
29 1 17.6475 1.3575 1.3575
28 1 19.005 2.715 0
33 1 21.72 0 0
37 1 23.0775 1.3575 1.3575
36 1 24.435 2.715 0
41 1 0 5.43 0
8 1 4.0725 4.0725 1.3575
49 1 5.43 5.43 0
16 1 9.5025 4.0725 1.3575
57 1 10.86 5.43 0
24 1 14.9325 4.0725 1.3575
65 1 16.29 5.43 0
32 1 20.3625 4.0725 1.3575
73 1 21.72 5.43 0
40 1 25.7925 4.0725 1.3575
45 1 1.3575 6.7875 1.3575
44 1 2.715 8.145 0
53 1 6.7875 6.7875 1.3575
52 1 8.145 8.145 0
61 1 12.2175 6.7875 1.3575
60 1 13.575 8.145 0
69 1 17.6475 6.7875 1.3575
68 1 19.005 8.145 0
77 1 23.0775 6.7875 1.3575
76 1 24.435 8.145 0
81 1 0 10.86 0
48 1 4.0725 9.5025 1.3575
89 1 5.43 10.86 0
56 1 9.5025 9.5025 1.3575
97 1 10.86 10.86 0
64 1 14.9325 9.5025 1.3575
105 1 16.29 10.86 0
72 1 20.3625 9.5025 1.3575
113 1 21.72 10.86 0
80 1 25.7925 9.5025 1.3575
85 1 1.3575 12.2175 1.3575
84 1 2.715 13.575 0
88 1 4.0725 14.9325 1.3575
93 1 6.7875 12.2175 1.3575
92 1 8.145 13.575 0
96 1 9.5025 14.9325 1.3575
101 1 12.2175 12.2175 1.3575
100 1 13.575 13.575 0
104 1 14.9325 14.9325 1.3575
109 1 17.6475 12.2175 1.3575
108 1 19.005 13.575 0
112 1 20.3625 14.9325 1.3575
117 1 23.0775 12.2175 1.3575
116 1 24.435 13.575 0
120 1 25.7925 14.9325 1.3575
121 1 0 16.29 0
123 1 1.3575 17.6475 1.3575
125 1 5.43 16.29 0
127 1 6.7875 17.6475 1.3575
129 1 10.86 16.29 0
131 1 12.2175 17.6475 1.3575
133 1 16.29 16.29 0
135 1 17.6475 17.6475 1.3575
137 1 21.72 16.29 0
139 1 23.0775 17.6475 1.3575
2 1 0 2.715 2.715
3 1 2.715 0 2.715
7 1 4.0725 1.3575 4.0725
10 1 5.43 2.715 2.715
11 1 8.145 0 2.715
15 1 9.5025 1.3575 4.0725
18 1 10.86 2.715 2.715
19 1 13.575 0 2.715
23 1 14.9325 1.3575 4.0725
26 1 16.29 2.715 2.715
27 1 19.005 0 2.715
31 1 20.3625 1.3575 4.0725
34 1 21.72 2.715 2.715
35 1 24.435 0 2.715
39 1 25.7925 1.3575 4.0725
6 1 1.3575 4.0725 4.0725
43 1 2.715 5.43 2.715
14 1 6.7875 4.0725 4.0725
51 1 8.145 5.43 2.715
22 1 12.2175 4.0725 4.0725
59 1 13.575 5.43 2.715
30 1 17.6475 4.0725 4.0725
67 1 19.005 5.43 2.715
38 1 23.0775 4.0725 4.0725
75 1 24.435 5.43 2.715
42 1 0 8.145 2.715
47 1 4.0725 6.7875 4.0725
50 1 5.43 8.145 2.715
55 1 9.5025 6.7875 4.0725
58 1 10.86 8.145 2.715
63 1 14.9325 6.7875 4.0725
66 1 16.29 8.145 2.715
71 1 20.3625 6.7875 4.0725
74 1 21.72 8.145 2.715
79 1 25.7925 6.7875 4.0725
46 1 1.3575 9.5025 4.0725
83 1 2.715 10.86 2.715
54 1 6.7875 9.5025 4.0725
91 1 8.145 10.86 2.715
62 1 12.2175 9.5025 4.0725
99 1 13.575 10.86 2.715
70 1 17.6475 9.5025 4.0725
107 1 19.005 10.86 2.715
78 1 23.0775 9.5025 4.0725
115 1 24.435 10.86 2.715
82 1 0 13.575 2.715
86 1 1.3575 14.9325 4.0725
87 1 4.0725 12.2175 4.0725
90 1 5.43 13.575 2.715
94 1 6.7875 14.9325 4.0725
95 1 9.5025 12.2175 4.0725
98 1 10.86 13.575 2.715
102 1 12.2175 14.9325 4.0725
103 1 14.9325 12.2175 4.0725
106 1 16.29 13.575 2.715
110 1 17.6475 14.9325 4.0725
111 1 20.3625 12.2175 4.0725
114 1 21.72 13.575 2.715
118 1 23.0775 14.9325 4.0725
119 1 25.7925 12.2175 4.0725
122 1 2.715 16.29 2.715
124 1 4.0725 17.6475 4.0725
126 1 8.145 16.29 2.715
128 1 9.5025 17.6475 4.0725
130 1 13.575 16.29 2.715
132 1 14.9325 17.6475 4.0725
134 1 19.005 16.29 2.715
136 1 20.3625 17.6475 4.0725
138 1 24.435 16.29 2.715
140 1 25.7925 17.6475 4.0725
141 1 0 0 5.43
145 1 1.3575 1.3575 6.7875
144 1 2.715 2.715 5.43
149 1 5.43 0 5.43
153 1 6.7875 1.3575 6.7875
152 1 8.145 2.715 5.43
157 1 10.86 0 5.43
161 1 12.2175 1.3575 6.7875
160 1 13.575 2.715 5.43
165 1 16.29 0 5.43
169 1 17.6475 1.3575 6.7875
168 1 19.005 2.715 5.43
173 1 21.72 0 5.43
177 1 23.0775 1.3575 6.7875
176 1 24.435 2.715 5.43
181 1 0 5.43 5.43
148 1 4.0725 4.0725 6.7875
189 1 5.43 5.43 5.43
156 1 9.5025 4.0725 6.7875
197 1 10.86 5.43 5.43
164 1 14.9325 4.0725 6.7875
205 1 16.29 5.43 5.43
172 1 20.3625 4.0725 6.7875
213 1 21.72 5.43 5.43
180 1 25.7925 4.0725 6.7875
185 1 1.3575 6.7875 6.7875
184 1 2.715 8.145 5.43
193 1 6.7875 6.7875 6.7875
192 1 8.145 8.145 5.43
201 1 12.2175 6.7875 6.7875
200 1 13.575 8.145 5.43
209 1 17.6475 6.7875 6.7875
208 1 19.005 8.145 5.43
217 1 23.0775 6.7875 6.7875
216 1 24.435 8.145 5.43
221 1 0 10.86 5.43
188 1 4.0725 9.5025 6.7875
229 1 5.43 10.86 5.43
196 1 9.5025 9.5025 6.7875
237 1 10.86 10.86 5.43
204 1 14.9325 9.5025 6.7875
245 1 16.29 10.86 5.43
212 1 20.3625 9.5025 6.7875
253 1 21.72 10.86 5.43
220 1 25.7925 9.5025 6.7875
225 1 1.3575 12.2175 6.7875
224 1 2.715 13.575 5.43
228 1 4.0725 14.9325 6.7875
233 1 6.7875 12.2175 6.7875
232 1 8.145 13.575 5.43
236 1 9.5025 14.9325 6.7875
241 1 12.2175 12.2175 6.7875
240 1 13.575 13.575 5.43
244 1 14.9325 14.9325 6.7875
249 1 17.6475 12.2175 6.7875
248 1 19.005 13.575 5.43
252 1 20.3625 14.9325 6.7875
257 1 23.0775 12.2175 6.7875
256 1 24.435 13.575 5.43
260 1 25.7925 14.9325 6.7875
261 1 0 16.29 5.43
263 1 1.3575 17.6475 6.7875
265 1 5.43 16.29 5.43
267 1 6.7875 17.6475 6.7875
269 1 10.86 16.29 5.43
271 1 12.2175 17.6475 6.7875
273 1 16.29 16.29 5.43
275 1 17.6475 17.6475 6.7875
277 1 21.72 16.29 5.43
279 1 23.0775 17.6475 6.7875
142 1 0 2.715 8.145
143 1 2.715 0 8.145
147 1 4.0725 1.3575 9.5025
150 1 5.43 2.715 8.145
151 1 8.145 0 8.145
155 1 9.5025 1.3575 9.5025
158 1 10.86 2.715 8.145
159 1 13.575 0 8.145
163 1 14.9325 1.3575 9.5025
166 1 16.29 2.715 8.145
167 1 19.005 0 8.145
171 1 20.3625 1.3575 9.5025
174 1 21.72 2.715 8.145
175 1 24.435 0 8.145
179 1 25.7925 1.3575 9.5025
146 1 1.3575 4.0725 9.5025
183 1 2.715 5.43 8.145
154 1 6.7875 4.0725 9.5025
191 1 8.145 5.43 8.145
162 1 12.2175 4.0725 9.5025
199 1 13.575 5.43 8.145
170 1 17.6475 4.0725 9.5025
207 1 19.005 5.43 8.145
178 1 23.0775 4.0725 9.5025
215 1 24.435 5.43 8.145
182 1 0 8.145 8.145
187 1 4.0725 6.7875 9.5025
190 1 5.43 8.145 8.145
195 1 9.5025 6.7875 9.5025
198 1 10.86 8.145 8.145
203 1 14.9325 6.7875 9.5025
206 1 16.29 8.145 8.145
211 1 20.3625 6.7875 9.5025
214 1 21.72 8.145 8.145
219 1 25.7925 6.7875 9.5025
186 1 1.3575 9.5025 9.5025
223 1 2.715 10.86 8.145
194 1 6.7875 9.5025 9.5025
231 1 8.145 10.86 8.145
202 1 12.2175 9.5025 9.5025
239 1 13.575 10.86 8.145
210 1 17.6475 9.5025 9.5025
247 1 19.005 10.86 8.145
218 1 23.0775 9.5025 9.5025
255 1 24.435 10.86 8.145
222 1 0 13.575 8.145
226 1 1.3575 14.9325 9.5025
227 1 4.0725 12.2175 9.5025
230 1 5.43 13.575 8.145
234 1 6.7875 14.9325 9.5025
235 1 9.5025 12.2175 9.5025
238 1 10.86 13.575 8.145
242 1 12.2175 14.9325 9.5025
243 1 14.9325 12.2175 9.5025
246 1 16.29 13.575 8.145
250 1 17.6475 14.9325 9.5025
251 1 20.3625 12.2175 9.5025
254 1 21.72 13.575 8.145
258 1 23.0775 14.9325 9.5025
259 1 25.7925 12.2175 9.5025
262 1 2.715 16.29 8.145
264 1 4.0725 17.6475 9.5025
266 1 8.145 16.29 8.145
268 1 9.5025 17.6475 9.5025
270 1 13.575 16.29 8.145
272 1 14.9325 17.6475 9.5025
274 1 19.005 16.29 8.145
276 1 20.3625 17.6475 9.5025
278 1 24.435 16.29 8.145
280 1 25.7925 17.6475 9.5025
281 1 0 0 10.86
283 1 1.3575 1.3575 12.2175
282 1 2.715 2.715 10.86
285 1 5.43 0 10.86
287 1 6.7875 1.3575 12.2175
286 1 8.145 2.715 10.86
289 1 10.86 0 10.86
291 1 12.2175 1.3575 12.2175
290 1 13.575 2.715 10.86
293 1 16.29 0 10.86
295 1 17.6475 1.3575 12.2175
294 1 19.005 2.715 10.86
297 1 21.72 0 10.86
299 1 23.0775 1.3575 12.2175
298 1 24.435 2.715 10.86
301 1 0 5.43 10.86
284 1 4.0725 4.0725 12.2175
305 1 5.43 5.43 10.86
288 1 9.5025 4.0725 12.2175
309 1 10.86 5.43 10.86
292 1 14.9325 4.0725 12.2175
313 1 16.29 5.43 10.86
296 1 20.3625 4.0725 12.2175
317 1 21.72 5.43 10.86
300 1 25.7925 4.0725 12.2175
303 1 1.3575 6.7875 12.2175
302 1 2.715 8.145 10.86
307 1 6.7875 6.7875 12.2175
306 1 8.145 8.145 10.86
311 1 12.2175 6.7875 12.2175
310 1 13.575 8.145 10.86
315 1 17.6475 6.7875 12.2175
314 1 19.005 8.145 10.86
319 1 23.0775 6.7875 12.2175
318 1 24.435 8.145 10.86
321 1 0 10.86 10.86
304 1 4.0725 9.5025 12.2175
325 1 5.43 10.86 10.86
308 1 9.5025 9.5025 12.2175
329 1 10.86 10.86 10.86
312 1 14.9325 9.5025 12.2175
333 1 16.29 10.86 10.86
316 1 20.3625 9.5025 12.2175
337 1 21.72 10.86 10.86
320 1 25.7925 9.5025 12.2175
323 1 1.3575 12.2175 12.2175
322 1 2.715 13.575 10.86
324 1 4.0725 14.9325 12.2175
327 1 6.7875 12.2175 12.2175
326 1 8.145 13.575 10.86
328 1 9.5025 14.9325 12.2175
331 1 12.2175 12.2175 12.2175
330 1 13.575 13.575 10.86
332 1 14.9325 14.9325 12.2175
335 1 17.6475 12.2175 12.2175
334 1 19.005 13.575 10.86
336 1 20.3625 14.9325 12.2175
339 1 23.0775 12.2175 12.2175
338 1 24.435 13.575 10.86
340 1 25.7925 14.9325 12.2175
341 1 0 16.29 10.86
342 1 1.3575 17.6475 12.2175
343 1 5.43 16.29 10.86
344 1 6.7875 17.6475 12.2175
345 1 10.86 16.29 10.86
346 1 12.2175 17.6475 12.2175
347 1 16.29 16.29 10.86
348 1 17.6475 17.6475 12.2175
349 1 21.72 16.29 10.86
350 1 23.0775 17.6475 12.2175
351 1 0 2.715 13.575
352 1 2.715 0 13.575
354 1 4.0725 1.3575 14.9325
355 1 5.43 2.715 13.575
356 1 8.145 0 13.575
358 1 9.5025 1.3575 14.9325
359 1 10.86 2.715 13.575
360 1 13.575 0 13.575
362 1 14.9325 1.3575 14.9325
363 1 16.29 2.715 13.575
364 1 19.005 0 13.575
366 1 20.3625 1.3575 14.9325
367 1 21.72 2.715 13.575
368 1 24.435 0 13.575
370 1 25.7925 1.3575 14.9325
353 1 1.3575 4.0725 14.9325
372 1 2.715 5.43 13.575
357 1 6.7875 4.0725 14.9325
376 1 8.145 5.43 13.575
361 1 12.2175 4.0725 14.9325
380 1 13.575 5.43 13.575
365 1 17.6475 4.0725 14.9325
384 1 19.005 5.43 13.575
369 1 23.0775 4.0725 14.9325
388 1 24.435 5.43 13.575
371 1 0 8.145 13.575
374 1 4.0725 6.7875 14.9325
375 1 5.43 8.145 13.575
378 1 9.5025 6.7875 14.9325
379 1 10.86 8.145 13.575
382 1 14.9325 6.7875 14.9325
383 1 16.29 8.145 13.575
386 1 20.3625 6.7875 14.9325
387 1 21.72 8.145 13.575
390 1 25.7925 6.7875 14.9325
373 1 1.3575 9.5025 14.9325
392 1 2.715 10.86 13.575
377 1 6.7875 9.5025 14.9325
396 1 8.145 10.86 13.575
381 1 12.2175 9.5025 14.9325
400 1 13.575 10.86 13.575
385 1 17.6475 9.5025 14.9325
404 1 19.005 10.86 13.575
389 1 23.0775 9.5025 14.9325
408 1 24.435 10.86 13.575
391 1 0 13.575 13.575
393 1 1.3575 14.9325 14.9325
394 1 4.0725 12.2175 14.9325
395 1 5.43 13.575 13.575
397 1 6.7875 14.9325 14.9325
398 1 9.5025 12.2175 14.9325
399 1 10.86 13.575 13.575
401 1 12.2175 14.9325 14.9325
402 1 14.9325 12.2175 14.9325
403 1 16.29 13.575 13.575
405 1 17.6475 14.9325 14.9325
406 1 20.3625 12.2175 14.9325
407 1 21.72 13.575 13.575
409 1 23.0775 14.9325 14.9325
410 1 25.7925 12.2175 14.9325
411 1 2.715 16.29 13.575
412 1 4.0725 17.6475 14.9325
413 1 8.145 16.29 13.575
414 1 9.5025 17.6475 14.9325
415 1 13.575 16.29 13.575
416 1 14.9325 17.6475 14.9325
417 1 19.005 16.29 13.575
418 1 20.3625 17.6475 14.9325
419 1 24.435 16.29 13.575
420 1 25.7925 17.6475 14.9325
421 1 0 0 16.29
425 1 1.3575 1.3575 17.6475
424 1 2.715 2.715 16.29
429 1 5.43 0 16.29
433 1 6.7875 1.3575 17.6475
432 1 8.145 2.715 16.29
437 1 10.86 0 16.29
441 1 12.2175 1.3575 17.6475
440 1 13.575 2.715 16.29
445 1 16.29 0 16.29
449 1 17.6475 1.3575 17.6475
448 1 19.005 2.715 16.29
453 1 21.72 0 16.29
457 1 23.0775 1.3575 17.6475
456 1 24.435 2.715 16.29
461 1 0 5.43 16.29
428 1 4.0725 4.0725 17.6475
469 1 5.43 5.43 16.29
436 1 9.5025 4.0725 17.6475
477 1 10.86 5.43 16.29
444 1 14.9325 4.0725 17.6475
485 1 16.29 5.43 16.29
452 1 20.3625 4.0725 17.6475
493 1 21.72 5.43 16.29
460 1 25.7925 4.0725 17.6475
465 1 1.3575 6.7875 17.6475
464 1 2.715 8.145 16.29
473 1 6.7875 6.7875 17.6475
472 1 8.145 8.145 16.29
481 1 12.2175 6.7875 17.6475
480 1 13.575 8.145 16.29
489 1 17.6475 6.7875 17.6475
488 1 19.005 8.145 16.29
497 1 23.0775 6.7875 17.6475
496 1 24.435 8.145 16.29
501 1 0 10.86 16.29
468 1 4.0725 9.5025 17.6475
509 1 5.43 10.86 16.29
476 1 9.5025 9.5025 17.6475
517 1 10.86 10.86 16.29
484 1 14.9325 9.5025 17.6475
525 1 16.29 10.86 16.29
492 1 20.3625 9.5025 17.6475
533 1 21.72 10.86 16.29
500 1 25.7925 9.5025 17.6475
505 1 1.3575 12.2175 17.6475
504 1 2.715 13.575 16.29
508 1 4.0725 14.9325 17.6475
513 1 6.7875 12.2175 17.6475
512 1 8.145 13.575 16.29
516 1 9.5025 14.9325 17.6475
521 1 12.2175 12.2175 17.6475
520 1 13.575 13.575 16.29
524 1 14.9325 14.9325 17.6475
529 1 17.6475 12.2175 17.6475
528 1 19.005 13.575 16.29
532 1 20.3625 14.9325 17.6475
537 1 23.0775 12.2175 17.6475
536 1 24.435 13.575 16.29
540 1 25.7925 14.9325 17.6475
541 1 0 16.29 16.29
543 1 1.3575 17.6475 17.6475
545 1 5.43 16.29 16.29
547 1 6.7875 17.6475 17.6475
549 1 10.86 16.29 16.29
551 1 12.2175 17.6475 17.6475
553 1 16.29 16.29 16.29
555 1 17.6475 17.6475 17.6475
557 1 21.72 16.29 16.29
559 1 23.0775 17.6475 17.6475
422 1 0 2.715 19.005
423 1 2.715 0 19.005
427 1 4.0725 1.3575 20.3625
430 1 5.43 2.715 19.005
431 1 8.145 0 19.005
435 1 9.5025 1.3575 20.3625
438 1 10.86 2.715 19.005
439 1 13.575 0 19.005
443 1 14.9325 1.3575 20.3625
446 1 16.29 2.715 19.005
447 1 19.005 0 19.005
451 1 20.3625 1.3575 20.3625
454 1 21.72 2.715 19.005
455 1 24.435 0 19.005
459 1 25.7925 1.3575 20.3625
426 1 1.3575 4.0725 20.3625
463 1 2.715 5.43 19.005
434 1 6.7875 4.0725 20.3625
471 1 8.145 5.43 19.005
442 1 12.2175 4.0725 20.3625
479 1 13.575 5.43 19.005
450 1 17.6475 4.0725 20.3625
487 1 19.005 5.43 19.005
458 1 23.0775 4.0725 20.3625
495 1 24.435 5.43 19.005
462 1 0 8.145 19.005
467 1 4.0725 6.7875 20.3625
470 1 5.43 8.145 19.005
475 1 9.5025 6.7875 20.3625
478 1 10.86 8.145 19.005
483 1 14.9325 6.7875 20.3625
486 1 16.29 8.145 19.005
491 1 20.3625 6.7875 20.3625
494 1 21.72 8.145 19.005
499 1 25.7925 6.7875 20.3625
466 1 1.3575 9.5025 20.3625
503 1 2.715 10.86 19.005
474 1 6.7875 9.5025 20.3625
511 1 8.145 10.86 19.005
482 1 12.2175 9.5025 20.3625
519 1 13.575 10.86 19.005
490 1 17.6475 9.5025 20.3625
527 1 19.005 10.86 19.005
498 1 23.0775 9.5025 20.3625
535 1 24.435 10.86 19.005
502 1 0 13.575 19.005
506 1 1.3575 14.9325 20.3625
507 1 4.0725 12.2175 20.3625
510 1 5.43 13.575 19.005
514 1 6.7875 14.9325 20.3625
515 1 9.5025 12.2175 20.3625
518 1 10.86 13.575 19.005
522 1 12.2175 14.9325 20.3625
523 1 14.9325 12.2175 20.3625
526 1 16.29 13.575 19.005
530 1 17.6475 14.9325 20.3625
531 1 20.3625 12.2175 20.3625
534 1 21.72 13.575 19.005
538 1 23.0775 14.9325 20.3625
539 1 25.7925 12.2175 20.3625
542 1 2.715 16.29 19.005
544 1 4.0725 17.6475 20.3625
546 1 8.145 16.29 19.005
548 1 9.5025 17.6475 20.3625
550 1 13.575 16.29 19.005
552 1 14.9325 17.6475 20.3625
554 1 19.005 16.29 19.005
556 1 20.3625 17.6475 20.3625
558 1 24.435 16.29 19.005
560 1 25.7925 17.6475 20.3625
561 1 0 0 21.72
565 1 1.3575 1.3575 23.0775
564 1 2.715 2.715 21.72
569 1 5.43 0 21.72
573 1 6.7875 1.3575 23.0775
572 1 8.145 2.715 21.72
577 1 10.86 0 21.72
581 1 12.2175 1.3575 23.0775
580 1 13.575 2.715 21.72
585 1 16.29 0 21.72
589 1 17.6475 1.3575 23.0775
588 1 19.005 2.715 21.72
593 1 21.72 0 21.72
597 1 23.0775 1.3575 23.0775
596 1 24.435 2.715 21.72
601 1 0 5.43 21.72
568 1 4.0725 4.0725 23.0775
609 1 5.43 5.43 21.72
576 1 9.5025 4.0725 23.0775
617 1 10.86 5.43 21.72
584 1 14.9325 4.0725 23.0775
625 1 16.29 5.43 21.72
592 1 20.3625 4.0725 23.0775
633 1 21.72 5.43 21.72
600 1 25.7925 4.0725 23.0775
605 1 1.3575 6.7875 23.0775
604 1 2.715 8.145 21.72
613 1 6.7875 6.7875 23.0775
612 1 8.145 8.145 21.72
621 1 12.2175 6.7875 23.0775
620 1 13.575 8.145 21.72
629 1 17.6475 6.7875 23.0775
628 1 19.005 8.145 21.72
637 1 23.0775 6.7875 23.0775
636 1 24.435 8.145 21.72
641 1 0 10.86 21.72
608 1 4.0725 9.5025 23.0775
649 1 5.43 10.86 21.72
616 1 9.5025 9.5025 23.0775
657 1 10.86 10.86 21.72
624 1 14.9325 9.5025 23.0775
665 1 16.29 10.86 21.72
632 1 20.3625 9.5025 23.0775
673 1 21.72 10.86 21.72
640 1 25.7925 9.5025 23.0775
645 1 1.3575 12.2175 23.0775
644 1 2.715 13.575 21.72
648 1 4.0725 14.9325 23.0775
653 1 6.7875 12.2175 23.0775
652 1 8.145 13.575 21.72
656 1 9.5025 14.9325 23.0775
661 1 12.2175 12.2175 23.0775
660 1 13.575 13.575 21.72
664 1 14.9325 14.9325 23.0775
669 1 17.6475 12.2175 23.0775
668 1 19.005 13.575 21.72
672 1 20.3625 14.9325 23.0775
677 1 23.0775 12.2175 23.0775
676 1 24.435 13.575 21.72
680 1 25.7925 14.9325 23.0775
681 1 0 16.29 21.72
683 1 1.3575 17.6475 23.0775
685 1 5.43 16.29 21.72
687 1 6.7875 17.6475 23.0775
689 1 10.86 16.29 21.72
691 1 12.2175 17.6475 23.0775
693 1 16.29 16.29 21.72
695 1 17.6475 17.6475 23.0775
697 1 21.72 16.29 21.72
699 1 23.0775 17.6475 23.0775
562 1 0 2.715 24.435
563 1 2.715 0 24.435
567 1 4.0725 1.3575 25.7925
570 1 5.43 2.715 24.435
571 1 8.145 0 24.435
575 1 9.5025 1.3575 25.7925
578 1 10.86 2.715 24.435
579 1 13.575 0 24.435
583 1 14.9325 1.3575 25.7925
586 1 16.29 2.715 24.435
587 1 19.005 0 24.435
591 1 20.3625 1.3575 25.7925
594 1 21.72 2.715 24.435
595 1 24.435 0 24.435
599 1 25.7925 1.3575 25.7925
566 1 1.3575 4.0725 25.7925
603 1 2.715 5.43 24.435
574 1 6.7875 4.0725 25.7925
611 1 8.145 5.43 24.435
582 1 12.2175 4.0725 25.7925
619 1 13.575 5.43 24.435
590 1 17.6475 4.0725 25.7925
627 1 19.005 5.43 24.435
598 1 23.0775 4.0725 25.7925
635 1 24.435 5.43 24.435
602 1 0 8.145 24.435
607 1 4.0725 6.7875 25.7925
610 1 5.43 8.145 24.435
615 1 9.5025 6.7875 25.7925
618 1 10.86 8.145 24.435
623 1 14.9325 6.7875 25.7925
626 1 16.29 8.145 24.435
631 1 20.3625 6.7875 25.7925
634 1 21.72 8.145 24.435
639 1 25.7925 6.7875 25.7925
606 1 1.3575 9.5025 25.7925
643 1 2.715 10.86 24.435
614 1 6.7875 9.5025 25.7925
651 1 8.145 10.86 24.435
622 1 12.2175 9.5025 25.7925
659 1 13.575 10.86 24.435
630 1 17.6475 9.5025 25.7925
667 1 19.005 10.86 24.435
638 1 23.0775 9.5025 25.7925
675 1 24.435 10.86 24.435
642 1 0 13.575 24.435
646 1 1.3575 14.9325 25.7925
647 1 4.0725 12.2175 25.7925
650 1 5.43 13.575 24.435
654 1 6.7875 14.9325 25.7925
655 1 9.5025 12.2175 25.7925
658 1 10.86 13.575 24.435
662 1 12.2175 14.9325 25.7925
663 1 14.9325 12.2175 25.7925
666 1 16.29 13.575 24.435
670 1 17.6475 14.9325 25.7925
671 1 20.3625 12.2175 25.7925
674 1 21.72 13.575 24.435
678 1 23.0775 14.9325 25.7925
679 1 25.7925 12.2175 25.7925
682 1 2.715 16.29 24.435
684 1 4.0725 17.6475 25.7925
686 1 8.145 16.29 24.435
688 1 9.5025 17.6475 25.7925
690 1 13.575 16.29 24.435
692 1 14.9325 17.6475 25.7925
694 1 19.005 16.29 24.435
696 1 20.3625 17.6475 25.7925
698 1 24.435 16.29 24.435
700 1 25.7925 17.6475 25.7925
701 1 0 0 27.15
705 1 1.3575 1.3575 28.5075
704 1 2.715 2.715 27.15
709 1 5.43 0 27.15
713 1 6.7875 1.3575 28.5075
712 1 8.145 2.715 27.15
717 1 10.86 0 27.15
721 1 12.2175 1.3575 28.5075
720 1 13.575 2.715 27.15
725 1 16.29 0 27.15
729 1 17.6475 1.3575 28.5075
728 1 19.005 2.715 27.15
733 1 21.72 0 27.15
737 1 23.0775 1.3575 28.5075
736 1 24.435 2.715 27.15
741 1 0 5.43 27.15
708 1 4.0725 4.0725 28.5075
749 1 5.43 5.43 27.15
716 1 9.5025 4.0725 28.5075
757 1 10.86 5.43 27.15
724 1 14.9325 4.0725 28.5075
765 1 16.29 5.43 27.15
732 1 20.3625 4.0725 28.5075
773 1 21.72 5.43 27.15
740 1 25.7925 4.0725 28.5075
745 1 1.3575 6.7875 28.5075
744 1 2.715 8.145 27.15
753 1 6.7875 6.7875 28.5075
752 1 8.145 8.145 27.15
761 1 12.2175 6.7875 28.5075
760 1 13.575 8.145 27.15
769 1 17.6475 6.7875 28.5075
768 1 19.005 8.145 27.15
777 1 23.0775 6.7875 28.5075
776 1 24.435 8.145 27.15
781 1 0 10.86 27.15
748 1 4.0725 9.5025 28.5075
789 1 5.43 10.86 27.15
756 1 9.5025 9.5025 28.5075
797 1 10.86 10.86 27.15
764 1 14.9325 9.5025 28.5075
805 1 16.29 10.86 27.15
772 1 20.3625 9.5025 28.5075
813 1 21.72 10.86 27.15
780 1 25.7925 9.5025 28.5075
785 1 1.3575 12.2175 28.5075
784 1 2.715 13.575 27.15
788 1 4.0725 14.9325 28.5075
793 1 6.7875 12.2175 28.5075
792 1 8.145 13.575 27.15
796 1 9.5025 14.9325 28.5075
801 1 12.2175 12.2175 28.5075
800 1 13.575 13.575 27.15
804 1 14.9325 14.9325 28.5075
809 1 17.6475 12.2175 28.5075
808 1 19.005 13.575 27.15
812 1 20.3625 14.9325 28.5075
817 1 23.0775 12.2175 28.5075
816 1 24.435 13.575 27.15
820 1 25.7925 14.9325 28.5075
821 1 0 16.29 27.15
823 1 1.3575 17.6475 28.5075
825 1 5.43 16.29 27.15
827 1 6.7875 17.6475 28.5075
829 1 10.86 16.29 27.15
831 1 12.2175 17.6475 28.5075
833 1 16.29 16.29 27.15
835 1 17.6475 17.6475 28.5075
837 1 21.72 16.29 27.15
839 1 23.0775 17.6475 28.5075
702 1 0 2.715 29.865
703 1 2.715 0 29.865
707 1 4.0725 1.3575 31.2225
710 1 5.43 2.715 29.865
711 1 8.145 0 29.865
715 1 9.5025 1.3575 31.2225
718 1 10.86 2.715 29.865
719 1 13.575 0 29.865
723 1 14.9325 1.3575 31.2225
726 1 16.29 2.715 29.865
727 1 19.005 0 29.865
731 1 20.3625 1.3575 31.2225
734 1 21.72 2.715 29.865
735 1 24.435 0 29.865
739 1 25.7925 1.3575 31.2225
706 1 1.3575 4.0725 31.2225
743 1 2.715 5.43 29.865
714 1 6.7875 4.0725 31.2225
751 1 8.145 5.43 29.865
722 1 12.2175 4.0725 31.2225
759 1 13.575 5.43 29.865
730 1 17.6475 4.0725 31.2225
767 1 19.005 5.43 29.865
738 1 23.0775 4.0725 31.2225
775 1 24.435 5.43 29.865
742 1 0 8.145 29.865
747 1 4.0725 6.7875 31.2225
750 1 5.43 8.145 29.865
755 1 9.5025 6.7875 31.2225
758 1 10.86 8.145 29.865
763 1 14.9325 6.7875 31.2225
766 1 16.29 8.145 29.865
771 1 20.3625 6.7875 31.2225
774 1 21.72 8.145 29.865
779 1 25.7925 6.7875 31.2225
746 1 1.3575 9.5025 31.2225
783 1 2.715 10.86 29.865
754 1 6.7875 9.5025 31.2225
791 1 8.145 10.86 29.865
762 1 12.2175 9.5025 31.2225
799 1 13.575 10.86 29.865
770 1 17.6475 9.5025 31.2225
807 1 19.005 10.86 29.865
778 1 23.0775 9.5025 31.2225
815 1 24.435 10.86 29.865
782 1 0 13.575 29.865
786 1 1.3575 14.9325 31.2225
787 1 4.0725 12.2175 31.2225
790 1 5.43 13.575 29.865
794 1 6.7875 14.9325 31.2225
795 1 9.5025 12.2175 31.2225
798 1 10.86 13.575 29.865
802 1 12.2175 14.9325 31.2225
803 1 14.9325 12.2175 31.2225
806 1 16.29 13.575 29.865
810 1 17.6475 14.9325 31.2225
811 1 20.3625 12.2175 31.2225
814 1 21.72 13.575 29.865
818 1 23.0775 14.9325 31.2225
819 1 25.7925 12.2175 31.2225
822 1 2.715 16.29 29.865
824 1 4.0725 17.6475 31.2225
826 1 8.145 16.29 29.865
828 1 9.5025 17.6475 31.2225
830 1 13.575 16.29 29.865
832 1 14.9325 17.6475 31.2225
834 1 19.005 16.29 29.865
836 1 20.3625 17.6475 31.2225
838 1 24.435 16.29 29.865
840 1 25.7925 17.6475 31.2225
841 1 0 0 32.58
845 1 1.3575 1.3575 33.9375
844 1 2.715 2.715 32.58
849 1 5.43 0 32.58
853 1 6.7875 1.3575 33.9375
852 1 8.145 2.715 32.58
857 1 10.86 0 32.58
861 1 12.2175 1.3575 33.9375
860 1 13.575 2.715 32.58
865 1 16.29 0 32.58
869 1 17.6475 1.3575 33.9375
868 1 19.005 2.715 32.58
873 1 21.72 0 32.58
877 1 23.0775 1.3575 33.9375
876 1 24.435 2.715 32.58
881 1 0 5.43 32.58
848 1 4.0725 4.0725 33.9375
889 1 5.43 5.43 32.58
856 1 9.5025 4.0725 33.9375
897 1 10.86 5.43 32.58
864 1 14.9325 4.0725 33.9375
905 1 16.29 5.43 32.58
872 1 20.3625 4.0725 33.9375
913 1 21.72 5.43 32.58
880 1 25.7925 4.0725 33.9375
885 1 1.3575 6.7875 33.9375
884 1 2.715 8.145 32.58
893 1 6.7875 6.7875 33.9375
892 1 8.145 8.145 32.58
901 1 12.2175 6.7875 33.9375
900 1 13.575 8.145 32.58
909 1 17.6475 6.7875 33.9375
908 1 19.005 8.145 32.58
917 1 23.0775 6.7875 33.9375
916 1 24.435 8.145 32.58
921 1 0 10.86 32.58
888 1 4.0725 9.5025 33.9375
929 1 5.43 10.86 32.58
896 1 9.5025 9.5025 33.9375
937 1 10.86 10.86 32.58
904 1 14.9325 9.5025 33.9375
945 1 16.29 10.86 32.58
912 1 20.3625 9.5025 33.9375
953 1 21.72 10.86 32.58
920 1 25.7925 9.5025 33.9375
925 1 1.3575 12.2175 33.9375
924 1 2.715 13.575 32.58
928 1 4.0725 14.9325 33.9375
933 1 6.7875 12.2175 33.9375
932 1 8.145 13.575 32.58
936 1 9.5025 14.9325 33.9375
941 1 12.2175 12.2175 33.9375
940 1 13.575 13.575 32.58
944 1 14.9325 14.9325 33.9375
949 1 17.6475 12.2175 33.9375
948 1 19.005 13.575 32.58
952 1 20.3625 14.9325 33.9375
957 1 23.0775 12.2175 33.9375
956 1 24.435 13.575 32.58
960 1 25.7925 14.9325 33.9375
961 1 0 16.29 32.58
963 1 1.3575 17.6475 33.9375
965 1 5.43 16.29 32.58
967 1 6.7875 17.6475 33.9375
969 1 10.86 16.29 32.58
971 1 12.2175 17.6475 33.9375
973 1 16.29 16.29 32.58
975 1 17.6475 17.6475 33.9375
977 1 21.72 16.29 32.58
979 1 23.0775 17.6475 33.9375
842 1 0 2.715 35.295
843 1 2.715 0 35.295
847 1 4.0725 1.3575 36.6525
850 1 5.43 2.715 35.295
851 1 8.145 0 35.295
855 1 9.5025 1.3575 36.6525
858 1 10.86 2.715 35.295
859 1 13.575 0 35.295
863 1 14.9325 1.3575 36.6525
866 1 16.29 2.715 35.295
867 1 19.005 0 35.295
871 1 20.3625 1.3575 36.6525
874 1 21.72 2.715 35.295
875 1 24.435 0 35.295
879 1 25.7925 1.3575 36.6525
846 1 1.3575 4.0725 36.6525
883 1 2.715 5.43 35.295
854 1 6.7875 4.0725 36.6525
891 1 8.145 5.43 35.295
862 1 12.2175 4.0725 36.6525
899 1 13.575 5.43 35.295
870 1 17.6475 4.0725 36.6525
907 1 19.005 5.43 35.295
878 1 23.0775 4.0725 36.6525
915 1 24.435 5.43 35.295
882 1 0 8.145 35.295
887 1 4.0725 6.7875 36.6525
890 1 5.43 8.145 35.295
895 1 9.5025 6.7875 36.6525
898 1 10.86 8.145 35.295
903 1 14.9325 6.7875 36.6525
906 1 16.29 8.145 35.295
911 1 20.3625 6.7875 36.6525
914 1 21.72 8.145 35.295
919 1 25.7925 6.7875 36.6525
886 1 1.3575 9.5025 36.6525
923 1 2.715 10.86 35.295
894 1 6.7875 9.5025 36.6525
931 1 8.145 10.86 35.295
902 1 12.2175 9.5025 36.6525
939 1 13.575 10.86 35.295
910 1 17.6475 9.5025 36.6525
947 1 19.005 10.86 35.295
918 1 23.0775 9.5025 36.6525
955 1 24.435 10.86 35.295
922 1 0 13.575 35.295
926 1 1.3575 14.9325 36.6525
927 1 4.0725 12.2175 36.6525
930 1 5.43 13.575 35.295
934 1 6.7875 14.9325 36.6525
935 1 9.5025 12.2175 36.6525
938 1 10.86 13.575 35.295
942 1 12.2175 14.9325 36.6525
943 1 14.9325 12.2175 36.6525
946 1 16.29 13.575 35.295
950 1 17.6475 14.9325 36.6525
951 1 20.3625 12.2175 36.6525
954 1 21.72 13.575 35.295
958 1 23.0775 14.9325 36.6525
959 1 25.7925 12.2175 36.6525
962 1 2.715 16.29 35.295
964 1 4.0725 17.6475 36.6525
966 1 8.145 16.29 35.295
968 1 9.5025 17.6475 36.6525
970 1 13.575 16.29 35.295
972 1 14.9325 17.6475 36.6525
974 1 19.005 16.29 35.295
976 1 20.3625 17.6475 36.6525
978 1 24.435 16.29 35.295
980 1 25.7925 17.6475 36.6525
981 1 0 0 38.01
983 1 1.3575 1.3575 39.3675
982 1 2.715 2.715 38.01
985 1 5.43 0 38.01
987 1 6.7875 1.3575 39.3675
986 1 8.145 2.715 38.01
989 1 10.86 0 38.01
991 1 12.2175 1.3575 39.3675
990 1 13.575 2.715 38.01
993 1 16.29 0 38.01
995 1 17.6475 1.3575 39.3675
994 1 19.005 2.715 38.01
997 1 21.72 0 38.01
999 1 23.0775 1.3575 39.3675
998 1 24.435 2.715 38.01
1001 1 0 5.43 38.01
984 1 4.0725 4.0725 39.3675
1005 1 5.43 5.43 38.01
988 1 9.5025 4.0725 39.3675
1009 1 10.86 5.43 38.01
992 1 14.9325 4.0725 39.3675
1013 1 16.29 5.43 38.01
996 1 20.3625 4.0725 39.3675
1017 1 21.72 5.43 38.01
1000 1 25.7925 4.0725 39.3675
1003 1 1.3575 6.7875 39.3675
1002 1 2.715 8.145 38.01
1007 1 6.7875 6.7875 39.3675
1006 1 8.145 8.145 38.01
1011 1 12.2175 6.7875 39.3675
1010 1 13.575 8.145 38.01
1015 1 17.6475 6.7875 39.3675
1014 1 19.005 8.145 38.01
1019 1 23.0775 6.7875 39.3675
1018 1 24.435 8.145 38.01
1021 1 0 10.86 38.01
1004 1 4.0725 9.5025 39.3675
1025 1 5.43 10.86 38.01
1008 1 9.5025 9.5025 39.3675
1029 1 10.86 10.86 38.01
1012 1 14.9325 9.5025 39.3675
1033 1 16.29 10.86 38.01
1016 1 20.3625 9.5025 39.3675
1037 1 21.72 10.86 38.01
1020 1 25.7925 9.5025 39.3675
1023 1 1.3575 12.2175 39.3675
1022 1 2.715 13.575 38.01
1024 1 4.0725 14.9325 39.3675
1027 1 6.7875 12.2175 39.3675
1026 1 8.145 13.575 38.01
1028 1 9.5025 14.9325 39.3675
1031 1 12.2175 12.2175 39.3675
1030 1 13.575 13.575 38.01
1032 1 14.9325 14.9325 39.3675
1035 1 17.6475 12.2175 39.3675
1034 1 19.005 13.575 38.01
1036 1 20.3625 14.9325 39.3675
1039 1 23.0775 12.2175 39.3675
1038 1 24.435 13.575 38.01
1040 1 25.7925 14.9325 39.3675
1041 1 0 16.29 38.01
1042 1 1.3575 17.6475 39.3675
1043 1 5.43 16.29 38.01
1044 1 6.7875 17.6475 39.3675
1045 1 10.86 16.29 38.01
1046 1 12.2175 17.6475 39.3675
1047 1 16.29 16.29 38.01
1048 1 17.6475 17.6475 39.3675
1049 1 21.72 16.29 38.01
1050 1 23.0775 17.6475 39.3675
1051 1 0 2.715 40.725
1052 1 2.715 0 40.725
1054 1 4.0725 1.3575 42.0825
1055 1 5.43 2.715 40.725
1056 1 8.145 0 40.725
1058 1 9.5025 1.3575 42.0825
1059 1 10.86 2.715 40.725
1060 1 13.575 0 40.725
1062 1 14.9325 1.3575 42.0825
1063 1 16.29 2.715 40.725
1064 1 19.005 0 40.725
1066 1 20.3625 1.3575 42.0825
1067 1 21.72 2.715 40.725
1068 1 24.435 0 40.725
1070 1 25.7925 1.3575 42.0825
1053 1 1.3575 4.0725 42.0825
1072 1 2.715 5.43 40.725
1057 1 6.7875 4.0725 42.0825
1076 1 8.145 5.43 40.725
1061 1 12.2175 4.0725 42.0825
1080 1 13.575 5.43 40.725
1065 1 17.6475 4.0725 42.0825
1084 1 19.005 5.43 40.725
1069 1 23.0775 4.0725 42.0825
1088 1 24.435 5.43 40.725
1071 1 0 8.145 40.725
1074 1 4.0725 6.7875 42.0825
1075 1 5.43 8.145 40.725
1078 1 9.5025 6.7875 42.0825
1079 1 10.86 8.145 40.725
1082 1 14.9325 6.7875 42.0825
1083 1 16.29 8.145 40.725
1086 1 20.3625 6.7875 42.0825
1087 1 21.72 8.145 40.725
1090 1 25.7925 6.7875 42.0825
1073 1 1.3575 9.5025 42.0825
1092 1 2.715 10.86 40.725
1077 1 6.7875 9.5025 42.0825
1096 1 8.145 10.86 40.725
1081 1 12.2175 9.5025 42.0825
1100 1 13.575 10.86 40.725
1085 1 17.6475 9.5025 42.0825
1104 1 19.005 10.86 40.725
1089 1 23.0775 9.5025 42.0825
1108 1 24.435 10.86 40.725
1091 1 0 13.575 40.725
1093 1 1.3575 14.9325 42.0825
1094 1 4.0725 12.2175 42.0825
1095 1 5.43 13.575 40.725
1097 1 6.7875 14.9325 42.0825
1098 1 9.5025 12.2175 42.0825
1099 1 10.86 13.575 40.725
1101 1 12.2175 14.9325 42.0825
1102 1 14.9325 12.2175 42.0825
1103 1 16.29 13.575 40.725
1105 1 17.6475 14.9325 42.0825
1106 1 20.3625 12.2175 42.0825
1107 1 21.72 13.575 40.725
1109 1 23.0775 14.9325 42.0825
1110 1 25.7925 12.2175 42.0825
1111 1 2.715 16.29 40.725
1112 1 4.0725 17.6475 42.0825
1113 1 8.145 16.29 40.725
1114 1 9.5025 17.6475 42.0825
1115 1 13.575 16.29 40.725
1116 1 14.9325 17.6475 42.0825
1117 1 19.005 16.29 40.725
1118 1 20.3625 17.6475 42.0825
1119 1 24.435 16.29 40.725
1120 1 25.7925 17.6475 42.0825
1121 1 0 0 43.44
1125 1 1.3575 1.3575 44.7975
1124 1 2.715 2.715 43.44
1129 1 5.43 0 43.44
1133 1 6.7875 1.3575 44.7975
1132 1 8.145 2.715 43.44
1137 1 10.86 0 43.44
1141 1 12.2175 1.3575 44.7975
1140 1 13.575 2.715 43.44
1145 1 16.29 0 43.44
1149 1 17.6475 1.3575 44.7975
1148 1 19.005 2.715 43.44
1153 1 21.72 0 43.44
1157 1 23.0775 1.3575 44.7975
1156 1 24.435 2.715 43.44
1161 1 0 5.43 43.44
1128 1 4.0725 4.0725 44.7975
1169 1 5.43 5.43 43.44
1136 1 9.5025 4.0725 44.7975
1177 1 10.86 5.43 43.44
1144 1 14.9325 4.0725 44.7975
1185 1 16.29 5.43 43.44
1152 1 20.3625 4.0725 44.7975