ITEM: TIMESTEP
2142
ITEM: NUMBER OF ATOMS
10
ITEM: BOX BOUNDS abc origin pp pp pp
1000.0 0.0 0.0-500.0
0.0 1000.0 0.0-500.0
0.0 0.0 1000.0-500.0
ITEM: ATOMS x y z
16.1605 1.59182 115.272
35.4102 1.49971 96.5619
10.4412 5.89279 114.295
10.9814 6.26034 112.494
6.35682 -12.6062 112.024
14.787 5.05637 110.716
4.78535 5.50851 112.154
12.8944 9.22991 112.033
2.20695 1.70391 123.05
11.2676 -2.30316 122.006
