ITEM: TIMESTEP
2142
ITEM: NUMBER OF ATOMS
133
ITEM: BOX BOUNDS abc origin pp pp pp
500.0 0.0 0.0-250.0
0.0 500.0 0.0-250.0
0.0 0.0 500.0-250.0
ITEM: ATOMS x y z
-2.67525 6.24225 113.25225
-1.7835 0.0 123.0615
6.24225 -11.59275 111.46875
5.3505 -1.7835 110.577
6.24225 -9.80925 113.25225
6.24225 -6.24225 113.25225
3.567 -1.7835 112.3605
8.02575 -0.89175 113.25225
7.134 -10.701 114.144
9.80925 -4.45875 115.03575
4.45875 -2.67525 115.03575
8.02575 -2.67525 115.03575
2.67525 -0.89175 115.03575
6.24225 -0.89175 115.03575
8.9175 -1.7835 114.144
9.80925 -0.89175 115.03575
4.45875 -8.02575 116.81925
0.0 -5.3505 115.9275
1.7835 -3.567 115.9275
0.89175 -0.89175 116.81925
3.567 -1.7835 115.9275
5.3505 -1.7835 117.711
7.134 -1.7835 115.9275
11.59275 -0.89175 116.81925
5.3505 -7.134 119.4945
2.67525 -4.45875 118.60275
0.89175 -2.67525 118.60275
5.3505 -3.567 119.4945
2.67525 -0.89175 118.60275
6.24225 -0.89175 118.60275
7.134 -1.7835 119.4945
10.701 -1.7835 119.4945
1.7835 -5.3505 121.278
0.0 -3.567 121.278
6.24225 -2.67525 120.38625
0.89175 -0.89175 120.38625
4.45875 -0.89175 120.38625
5.3505 -1.7835 121.278
8.02575 -0.89175 120.38625
8.9175 -1.7835 121.278
0.0 -5.3505 123.0615
1.7835 -3.567 123.0615
0.0 -1.7835 123.0615
2.67525 -0.89175 122.16975
3.567 -1.7835 123.0615
6.24225 -0.89175 122.16975
8.02575 -0.89175 123.95325
8.02575 0.89175 111.46875
10.701 3.567 110.577
6.24225 0.89175 113.25225
8.9175 0.0 112.3605
8.02575 2.67525 113.25225
11.59275 2.67525 113.25225
6.24225 4.45875 113.25225
1.7835 7.134 112.3605
9.80925 8.02575 113.25225
11.59275 9.80925 113.25225
7.134 0.0 114.144
8.02575 0.89175 115.03575
8.9175 1.7835 114.144
11.59275 0.89175 115.03575
12.4845 1.7835 114.144
14.268 0.0 114.144
6.24225 2.67525 115.03575
7.134 3.567 114.144
9.80925 2.67525 115.03575
10.701 3.567 114.144
13.37625 2.67525 115.03575
4.45875 4.45875 115.03575
8.9175 5.3505 114.144
11.59275 4.45875 115.03575
12.4845 5.3505 114.144
6.24225 6.24225 115.03575
2.67525 0.89175 116.81925
3.567 1.7835 115.9275
3.567 0.0 117.711
5.3505 1.7835 117.711
6.24225 0.89175 116.81925
8.9175 0.0 115.9275
9.80925 0.89175 116.81925
8.9175 1.7835 117.711
12.4845 0.0 115.9275
12.4845 1.7835 117.711
3.567 3.567 117.711
5.3505 3.567 115.9275
7.134 3.567 117.711
8.9175 3.567 115.9275
10.701 3.567 117.711
9.80925 4.45875 116.81925
8.02575 6.24225 116.81925
12.4845 7.134 115.9275
5.3505 0.0 119.4945
4.45875 0.89175 118.60275
7.134 1.7835 119.4945
8.02575 0.89175 118.60275
8.9175 0.0 119.4945
10.701 1.7835 119.4945
11.59275 0.89175 118.60275
9.80925 2.67525 118.60275
14.268 5.3505 119.4945
0.0 0.0 121.278
2.67525 0.89175 120.38625
3.567 0.0 121.278
5.3505 1.7835 121.278
6.24225 0.89175 120.38625
7.134 0.0 121.278
8.02575 2.67525 120.38625
2.67525 4.45875 120.38625
12.4845 5.3505 121.278
0.0 1.7835 123.0615
3.567 1.7835 123.0615
5.3505 0.0 123.0615
4.45875 0.89175 122.16975
6.24225 0.89175 123.95325
7.134 1.7835 123.0615
8.02575 0.89175 122.16975
0.89175 2.67525 123.95325
1.7835 3.567 123.0615
4.45875 2.67525 123.95325
6.24225 2.67525 122.16975
13.37625 2.67525 122.16975
12.4845 3.567 123.0615
16.0515 3.567 123.0615
6.24225 4.45875 123.95325
10.701 5.3505 123.0615
14.268 5.3505 123.0615
12.4845 7.134 123.0615
0.0 0.0 124.845
5.3505 1.7835 124.845
7.134 0.0 124.845
3.567 3.567 124.845
7.134 3.567 124.845
14.268 3.567 124.845
