ITEM: TIMESTEP
0
ITEM: NUMBER OF ATOMS
1000
ITEM: BOX BOUNDS pp pp pp
0.0000000000000000e+00 1.7835000000000001e+01
0.0000000000000000e+00 1.7835000000000001e+01
0.0000000000000000e+00 1.7835000000000001e+01
ITEM: ATOMS id type x y z
1 1 0 0 0
2 1 0 1.7835 1.7835
3 1 1.7835 0 1.7835
4 1 1.7835 1.7835 0
5 1 0.89175 0.89175 0.89175
6 1 0.89175 2.67525 2.67525
7 1 2.67525 0.89175 2.67525
8 1 2.67525 2.67525 0.89175
9 1 3.567 0 0
10 1 3.567 1.7835 1.7835
11 1 5.3505 0 1.7835
12 1 5.3505 1.7835 0
13 1 4.45875 0.89175 0.89175
14 1 4.45875 2.67525 2.67525
15 1 6.24225 0.89175 2.67525
16 1 6.24225 2.67525 0.89175
17 1 7.134 0 0
18 1 7.134 1.7835 1.7835
19 1 8.9175 0 1.7835
20 1 8.9175 1.7835 0
21 1 8.02575 0.89175 0.89175
22 1 8.02575 2.67525 2.67525
23 1 9.80925 0.89175 2.67525
24 1 9.80925 2.67525 0.89175
25 1 10.701 0 0
26 1 10.701 1.7835 1.7835
27 1 12.4845 0 1.7835
28 1 12.4845 1.7835 0
29 1 11.5928 0.89175 0.89175
30 1 11.5928 2.67525 2.67525
31 1 13.3763 0.89175 2.67525
32 1 13.3763 2.67525 0.89175
33 1 14.268 0 0
34 1 14.268 1.7835 1.7835
35 1 16.0515 0 1.7835
36 1 16.0515 1.7835 0
37 1 15.1598 0.89175 0.89175
38 1 15.1598 2.67525 2.67525
39 1 16.9432 0.89175 2.67525
40 1 16.9432 2.67525 0.89175
41 1 0 3.567 0
42 1 0 5.3505 1.7835
43 1 1.7835 3.567 1.7835
44 1 1.7835 5.3505 0
45 1 0.89175 4.45875 0.89175
46 1 0.89175 6.24225 2.67525
47 1 2.67525 4.45875 2.67525
48 1 2.67525 6.24225 0.89175
49 1 3.567 3.567 0
50 1 3.567 5.3505 1.7835
51 1 5.3505 3.567 1.7835
52 1 5.3505 5.3505 0
53 1 4.45875 4.45875 0.89175
54 1 4.45875 6.24225 2.67525
55 1 6.24225 4.45875 2.67525
56 1 6.24225 6.24225 0.89175
57 1 7.134 3.567 0
58 1 7.134 5.3505 1.7835
59 1 8.9175 3.567 1.7835
60 1 8.9175 5.3505 0
61 1 8.02575 4.45875 0.89175
62 1 8.02575 6.24225 2.67525
63 1 9.80925 4.45875 2.67525
64 1 9.80925 6.24225 0.89175
65 1 10.701 3.567 0
66 1 10.701 5.3505 1.7835
67 1 12.4845 3.567 1.7835
68 1 12.4845 5.3505 0
69 1 11.5928 4.45875 0.89175
70 1 11.5928 6.24225 2.67525
71 1 13.3763 4.45875 2.67525
72 1 13.3763 6.24225 0.89175
73 1 14.268 3.567 0
74 1 14.268 5.3505 1.7835
75 1 16.0515 3.567 1.7835
76 1 16.0515 5.3505 0
77 1 15.1598 4.45875 0.89175
78 1 15.1598 6.24225 2.67525
79 1 16.9432 4.45875 2.67525
80 1 16.9432 6.24225 0.89175
81 1 0 7.134 0
82 1 1.7835 7.134 1.7835
83 1 0.89175 8.02575 0.89175
84 1 2.67525 8.02575 2.67525
85 1 3.567 7.134 0
86 1 5.3505 7.134 1.7835
87 1 4.45875 8.02575 0.89175
88 1 6.24225 8.02575 2.67525
89 1 7.134 7.134 0
90 1 8.9175 7.134 1.7835
91 1 8.02575 8.02575 0.89175
92 1 9.80925 8.02575 2.67525
93 1 10.701 7.134 0
94 1 12.4845 7.134 1.7835
95 1 11.5928 8.02575 0.89175
96 1 13.3763 8.02575 2.67525
97 1 14.268 7.134 0
98 1 16.0515 7.134 1.7835
99 1 15.1598 8.02575 0.89175
100 1 16.9432 8.02575 2.67525
101 1 0 0 3.567
102 1 0 1.7835 5.3505
103 1 1.7835 0 5.3505
104 1 1.7835 1.7835 3.567
105 1 0.89175 0.89175 4.45875
106 1 0.89175 2.67525 6.24225
107 1 2.67525 0.89175 6.24225
108 1 2.67525 2.67525 4.45875
109 1 3.567 0 3.567
110 1 3.567 1.7835 5.3505
111 1 5.3505 0 5.3505
112 1 5.3505 1.7835 3.567
113 1 4.45875 0.89175 4.45875
114 1 4.45875 2.67525 6.24225
115 1 6.24225 0.89175 6.24225
116 1 6.24225 2.67525 4.45875
117 1 7.134 0 3.567
118 1 7.134 1.7835 5.3505
119 1 8.9175 0 5.3505
120 1 8.9175 1.7835 3.567
121 1 8.02575 0.89175 4.45875
122 1 8.02575 2.67525 6.24225
123 1 9.80925 0.89175 6.24225
124 1 9.80925 2.67525 4.45875
125 1 10.701 0 3.567
126 1 10.701 1.7835 5.3505
127 1 12.4845 0 5.3505
128 1 12.4845 1.7835 3.567
129 1 11.5928 0.89175 4.45875
130 1 11.5928 2.67525 6.24225
131 1 13.3763 0.89175 6.24225
132 1 13.3763 2.67525 4.45875
133 1 14.268 0 3.567
134 1 14.268 1.7835 5.3505
135 1 16.0515 0 5.3505
136 1 16.0515 1.7835 3.567
137 1 15.1598 0.89175 4.45875
138 1 15.1598 2.67525 6.24225
139 1 16.9432 0.89175 6.24225
140 1 16.9432 2.67525 4.45875
141 1 0 3.567 3.567
142 1 0 5.3505 5.3505
143 1 1.7835 3.567 5.3505
144 1 1.7835 5.3505 3.567
145 1 0.89175 4.45875 4.45875
146 1 0.89175 6.24225 6.24225
147 1 2.67525 4.45875 6.24225
148 1 2.67525 6.24225 4.45875
149 1 3.567 3.567 3.567
150 1 3.567 5.3505 5.3505
151 1 5.3505 3.567 5.3505
152 1 5.3505 5.3505 3.567
153 1 4.45875 4.45875 4.45875
154 1 4.45875 6.24225 6.24225
155 1 6.24225 4.45875 6.24225
156 1 6.24225 6.24225 4.45875
157 1 7.134 3.567 3.567
158 1 7.134 5.3505 5.3505
159 1 8.9175 3.567 5.3505
160 1 8.9175 5.3505 3.567
161 1 8.02575 4.45875 4.45875
162 1 8.02575 6.24225 6.24225
163 1 9.80925 4.45875 6.24225
164 1 9.80925 6.24225 4.45875
165 1 10.701 3.567 3.567
166 1 10.701 5.3505 5.3505
167 1 12.4845 3.567 5.3505
168 1 12.4845 5.3505 3.567
169 1 11.5928 4.45875 4.45875
170 1 11.5928 6.24225 6.24225
171 1 13.3763 4.45875 6.24225
172 1 13.3763 6.24225 4.45875
173 1 14.268 3.567 3.567
174 1 14.268 5.3505 5.3505
175 1 16.0515 3.567 5.3505
176 1 16.0515 5.3505 3.567
177 1 15.1598 4.45875 4.45875
178 1 15.1598 6.24225 6.24225
179 1 16.9432 4.45875 6.24225
180 1 16.9432 6.24225 4.45875
181 1 0 7.134 3.567
182 1 1.7835 7.134 5.3505
183 1 0.89175 8.02575 4.45875
184 1 2.67525 8.02575 6.24225
185 1 3.567 7.134 3.567
186 1 5.3505 7.134 5.3505
187 1 4.45875 8.02575 4.45875
188 1 6.24225 8.02575 6.24225
189 1 7.134 7.134 3.567
190 1 8.9175 7.134 5.3505
191 1 8.02575 8.02575 4.45875
192 1 9.80925 8.02575 6.24225
193 1 10.701 7.134 3.567
194 1 12.4845 7.134 5.3505
195 1 11.5928 8.02575 4.45875
196 1 13.3763 8.02575 6.24225
197 1 14.268 7.134 3.567
198 1 16.0515 7.134 5.3505
199 1 15.1598 8.02575 4.45875
200 1 16.9432 8.02575 6.24225
201 1 0 0 7.134
202 1 1.7835 1.7835 7.134
203 1 0.89175 0.89175 8.02575
204 1 2.67525 2.67525 8.02575
205 1 3.567 0 7.134
206 1 5.3505 1.7835 7.134
207 1 4.45875 0.89175 8.02575
208 1 6.24225 2.67525 8.02575
209 1 7.134 0 7.134
210 1 8.9175 1.7835 7.134
211 1 8.02575 0.89175 8.02575
212 1 9.80925 2.67525 8.02575
213 1 10.701 0 7.134
214 1 12.4845 1.7835 7.134
215 1 11.5928 0.89175 8.02575
216 1 13.3763 2.67525 8.02575
217 1 14.268 0 7.134
218 1 16.0515 1.7835 7.134
219 1 15.1598 0.89175 8.02575
220 1 16.9432 2.67525 8.02575
221 1 0 3.567 7.134
222 1 1.7835 5.3505 7.134
223 1 0.89175 4.45875 8.02575
224 1 2.67525 6.24225 8.02575
225 1 3.567 3.567 7.134
226 1 5.3505 5.3505 7.134
227 1 4.45875 4.45875 8.02575
228 1 6.24225 6.24225 8.02575
229 1 7.134 3.567 7.134
230 1 8.9175 5.3505 7.134
231 1 8.02575 4.45875 8.02575
232 1 9.80925 6.24225 8.02575
233 1 10.701 3.567 7.134
234 1 12.4845 5.3505 7.134
235 1 11.5928 4.45875 8.02575
236 1 13.3763 6.24225 8.02575
237 1 14.268 3.567 7.134
238 1 16.0515 5.3505 7.134
239 1 15.1598 4.45875 8.02575
240 1 16.9432 6.24225 8.02575
241 1 0 7.134 7.134
242 1 0.89175 8.02575 8.02575
243 1 3.567 7.134 7.134
244 1 4.45875 8.02575 8.02575
245 1 7.134 7.134 7.134
246 1 8.02575 8.02575 8.02575
247 1 10.701 7.134 7.134
248 1 11.5928 8.02575 8.02575
249 1 14.268 7.134 7.134
250 1 15.1598 8.02575 8.02575
251 1 0 1.7835 8.9175
252 1 1.7835 0 8.9175
253 1 0.89175 2.67525 9.80925
254 1 2.67525 0.89175 9.80925
255 1 3.567 1.7835 8.9175
256 1 5.3505 0 8.9175
257 1 4.45875 2.67525 9.80925
258 1 6.24225 0.89175 9.80925
259 1 7.134 1.7835 8.9175
260 1 8.9175 0 8.9175
261 1 8.02575 2.67525 9.80925
262 1 9.80925 0.89175 9.80925
263 1 10.701 1.7835 8.9175
264 1 12.4845 0 8.9175
265 1 11.5928 2.67525 9.80925
266 1 13.3763 0.89175 9.80925
267 1 14.268 1.7835 8.9175
268 1 16.0515 0 8.9175
269 1 15.1598 2.67525 9.80925
270 1 16.9432 0.89175 9.80925
271 1 0 5.3505 8.9175
272 1 1.7835 3.567 8.9175
273 1 0.89175 6.24225 9.80925
274 1 2.67525 4.45875 9.80925
275 1 3.567 5.3505 8.9175
276 1 5.3505 3.567 8.9175
277 1 4.45875 6.24225 9.80925
278 1 6.24225 4.45875 9.80925
279 1 7.134 5.3505 8.9175
280 1 8.9175 3.567 8.9175
281 1 8.02575 6.24225 9.80925
282 1 9.80925 4.45875 9.80925
283 1 10.701 5.3505 8.9175
284 1 12.4845 3.567 8.9175
285 1 11.5928 6.24225 9.80925
286 1 13.3763 4.45875 9.80925
287 1 14.268 5.3505 8.9175
288 1 16.0515 3.567 8.9175
289 1 15.1598 6.24225 9.80925
290 1 16.9432 4.45875 9.80925
291 1 1.7835 7.134 8.9175
292 1 2.67525 8.02575 9.80925
293 1 5.3505 7.134 8.9175
294 1 6.24225 8.02575 9.80925
295 1 8.9175 7.134 8.9175
296 1 9.80925 8.02575 9.80925
297 1 12.4845 7.134 8.9175
298 1 13.3763 8.02575 9.80925
299 1 16.0515 7.134 8.9175
300 1 16.9432 8.02575 9.80925
301 1 0 0 10.701
302 1 0 1.7835 12.4845
303 1 1.7835 0 12.4845
304 1 1.7835 1.7835 10.701
305 1 0.89175 0.89175 11.5928
306 1 0.89175 2.67525 13.3763
307 1 2.67525 0.89175 13.3763
308 1 2.67525 2.67525 11.5928
309 1 3.567 0 10.701
310 1 3.567 1.7835 12.4845
311 1 5.3505 0 12.4845
312 1 5.3505 1.7835 10.701
313 1 4.45875 0.89175 11.5928
314 1 4.45875 2.67525 13.3763
315 1 6.24225 0.89175 13.3763
316 1 6.24225 2.67525 11.5928
317 1 7.134 0 10.701
318 1 7.134 1.7835 12.4845
319 1 8.9175 0 12.4845
320 1 8.9175 1.7835 10.701
321 1 8.02575 0.89175 11.5928
322 1 8.02575 2.67525 13.3763
323 1 9.80925 0.89175 13.3763
324 1 9.80925 2.67525 11.5928
325 1 10.701 0 10.701
326 1 10.701 1.7835 12.4845
327 1 12.4845 0 12.4845
328 1 12.4845 1.7835 10.701
329 1 11.5928 0.89175 11.5928
330 1 11.5928 2.67525 13.3763
331 1 13.3763 0.89175 13.3763
332 1 13.3763 2.67525 11.5928
333 1 14.268 0 10.701
334 1 14.268 1.7835 12.4845
335 1 16.0515 0 12.4845
336 1 16.0515 1.7835 10.701
337 1 15.1598 0.89175 11.5928
338 1 15.1598 2.67525 13.3763
339 1 16.9432 0.89175 13.3763
340 1 16.9432 2.67525 11.5928
341 1 0 3.567 10.701
342 1 0 5.3505 12.4845
343 1 1.7835 3.567 12.4845
344 1 1.7835 5.3505 10.701
345 1 0.89175 4.45875 11.5928
346 1 0.89175 6.24225 13.3763
347 1 2.67525 4.45875 13.3763
348 1 2.67525 6.24225 11.5928
349 1 3.567 3.567 10.701
350 1 3.567 5.3505 12.4845
351 1 5.3505 3.567 12.4845
352 1 5.3505 5.3505 10.701
353 1 4.45875 4.45875 11.5928
354 1 4.45875 6.24225 13.3763
355 1 6.24225 4.45875 13.3763
356 1 6.24225 6.24225 11.5928
357 1 7.134 3.567 10.701
358 1 7.134 5.3505 12.4845
359 1 8.9175 3.567 12.4845
360 1 8.9175 5.3505 10.701
361 1 8.02575 4.45875 11.5928
362 1 8.02575 6.24225 13.3763
363 1 9.80925 4.45875 13.3763
364 1 9.80925 6.24225 11.5928
365 1 10.701 3.567 10.701
366 1 10.701 5.3505 12.4845
367 1 12.4845 3.567 12.4845
368 1 12.4845 5.3505 10.701
369 1 11.5928 4.45875 11.5928
370 1 11.5928 6.24225 13.3763
371 1 13.3763 4.45875 13.3763
372 1 13.3763 6.24225 11.5928
373 1 14.268 3.567 10.701
374 1 14.268 5.3505 12.4845
375 1 16.0515 3.567 12.4845
376 1 16.0515 5.3505 10.701
377 1 15.1598 4.45875 11.5928
378 1 15.1598 6.24225 13.3763
379 1 16.9432 4.45875 13.3763
380 1 16.9432 6.24225 11.5928
381 1 0 7.134 10.701
382 1 1.7835 7.134 12.4845
383 1 0.89175 8.02575 11.5928
384 1 2.67525 8.02575 13.3763
385 1 3.567 7.134 10.701
386 1 5.3505 7.134 12.4845
387 1 4.45875 8.02575 11.5928
388 1 6.24225 8.02575 13.3763
389 1 7.134 7.134 10.701
390 1 8.9175 7.134 12.4845
391 1 8.02575 8.02575 11.5928
392 1 9.80925 8.02575 13.3763
393 1 10.701 7.134 10.701
394 1 12.4845 7.134 12.4845
395 1 11.5928 8.02575 11.5928
396 1 13.3763 8.02575 13.3763
397 1 14.268 7.134 10.701
398 1 16.0515 7.134 12.4845
399 1 15.1598 8.02575 11.5928
400 1 16.9432 8.02575 13.3763
401 1 0 0 14.268
402 1 0 1.7835 16.0515
403 1 1.7835 0 16.0515
404 1 1.7835 1.7835 14.268
405 1 0.89175 0.89175 15.1598
406 1 0.89175 2.67525 16.9432
407 1 2.67525 0.89175 16.9432
408 1 2.67525 2.67525 15.1598
409 1 3.567 0 14.268
410 1 3.567 1.7835 16.0515
411 1 5.3505 0 16.0515
412 1 5.3505 1.7835 14.268
413 1 4.45875 0.89175 15.1598
414 1 4.45875 2.67525 16.9432
415 1 6.24225 0.89175 16.9432
416 1 6.24225 2.67525 15.1598
417 1 7.134 0 14.268
418 1 7.134 1.7835 16.0515
419 1 8.9175 0 16.0515
420 1 8.9175 1.7835 14.268
421 1 8.02575 0.89175 15.1598
422 1 8.02575 2.67525 16.9432
423 1 9.80925 0.89175 16.9432
424 1 9.80925 2.67525 15.1598
425 1 10.701 0 14.268
426 1 10.701 1.7835 16.0515
427 1 12.4845 0 16.0515
428 1 12.4845 1.7835 14.268
429 1 11.5928 0.89175 15.1598
430 1 11.5928 2.67525 16.9432
431 1 13.3763 0.89175 16.9432
432 1 13.3763 2.67525 15.1598
433 1 14.268 0 14.268
434 1 14.268 1.7835 16.0515
435 1 16.0515 0 16.0515
436 1 16.0515 1.7835 14.268
437 1 15.1598 0.89175 15.1598
438 1 15.1598 2.67525 16.9432
439 1 16.9432 0.89175 16.9432
440 1 16.9432 2.67525 15.1598
441 1 0 3.567 14.268
442 1 0 5.3505 16.0515
443 1 1.7835 3.567 16.0515
444 1 1.7835 5.3505 14.268
445 1 0.89175 4.45875 15.1598
446 1 0.89175 6.24225 16.9432
447 1 2.67525 4.45875 16.9432
448 1 2.67525 6.24225 15.1598
449 1 3.567 3.567 14.268
450 1 3.567 5.3505 16.0515
451 1 5.3505 3.567 16.0515
452 1 5.3505 5.3505 14.268
453 1 4.45875 4.45875 15.1598
454 1 4.45875 6.24225 16.9432
455 1 6.24225 4.45875 16.9432
456 1 6.24225 6.24225 15.1598
457 1 7.134 3.567 14.268
458 1 7.134 5.3505 16.0515
459 1 8.9175 3.567 16.0515
460 1 8.9175 5.3505 14.268
461 1 8.02575 4.45875 15.1598
462 1 8.02575 6.24225 16.9432
463 1 9.80925 4.45875 16.9432
464 1 9.80925 6.24225 15.1598
465 1 10.701 3.567 14.268
466 1 10.701 5.3505 16.0515
467 1 12.4845 3.567 16.0515
468 1 12.4845 5.3505 14.268
469 1 11.5928 4.45875 15.1598
470 1 11.5928 6.24225 16.9432
471 1 13.3763 4.45875 16.9432
472 1 13.3763 6.24225 15.1598
473 1 14.268 3.567 14.268
474 1 14.268 5.3505 16.0515
475 1 16.0515 3.567 16.0515
476 1 16.0515 5.3505 14.268
477 1 15.1598 4.45875 15.1598
478 1 15.1598 6.24225 16.9432
479 1 16.9432 4.45875 16.9432
480 1 16.9432 6.24225 15.1598
481 1 0 7.134 14.268
482 1 1.7835 7.134 16.0515
483 1 0.89175 8.02575 15.1598
484 1 2.67525 8.02575 16.9432
485 1 3.567 7.134 14.268
486 1 5.3505 7.134 16.0515
487 1 4.45875 8.02575 15.1598
488 1 6.24225 8.02575 16.9432
489 1 7.134 7.134 14.268
490 1 8.9175 7.134 16.0515
491 1 8.02575 8.02575 15.1598
492 1 9.80925 8.02575 16.9432
493 1 10.701 7.134 14.268
494 1 12.4845 7.134 16.0515
495 1 11.5928 8.02575 15.1598
496 1 13.3763 8.02575 16.9432
497 1 14.268 7.134 14.268
498 1 16.0515 7.134 16.0515
499 1 15.1598 8.02575 15.1598
500 1 16.9432 8.02575 16.9432
501 1 0 8.9175 1.7835
502 1 1.7835 8.9175 0
503 1 0.89175 9.80925 2.67525
504 1 2.67525 9.80925 0.89175
505 1 3.567 8.9175 1.7835
506 1 5.3505 8.9175 0
507 1 4.45875 9.80925 2.67525
508 1 6.24225 9.80925 0.89175
509 1 7.134 8.9175 1.7835
510 1 8.9175 8.9175 0
511 1 8.02575 9.80925 2.67525
512 1 9.80925 9.80925 0.89175
513 1 10.701 8.9175 1.7835
514 1 12.4845 8.9175 0
515 1 11.5928 9.80925 2.67525
516 1 13.3763 9.80925 0.89175
517 1 14.268 8.9175 1.7835
518 1 16.0515 8.9175 0
519 1 15.1598 9.80925 2.67525
520 1 16.9432 9.80925 0.89175
521 1 0 10.701 0
522 1 0 12.4845 1.7835
523 1 1.7835 10.701 1.7835
524 1 1.7835 12.4845 0
525 1 0.89175 11.5928 0.89175
526 1 0.89175 13.3763 2.67525
527 1 2.67525 11.5928 2.67525
528 1 2.67525 13.3763 0.89175
529 1 3.567 10.701 0
530 1 3.567 12.4845 1.7835
531 1 5.3505 10.701 1.7835
532 1 5.3505 12.4845 0
533 1 4.45875 11.5928 0.89175
534 1 4.45875 13.3763 2.67525
535 1 6.24225 11.5928 2.67525
536 1 6.24225 13.3763 0.89175
537 1 7.134 10.701 0
538 1 7.134 12.4845 1.7835
539 1 8.9175 10.701 1.7835
540 1 8.9175 12.4845 0
541 1 8.02575 11.5928 0.89175
542 1 8.02575 13.3763 2.67525
543 1 9.80925 11.5928 2.67525
544 1 9.80925 13.3763 0.89175
545 1 10.701 10.701 0
546 1 10.701 12.4845 1.7835
547 1 12.4845 10.701 1.7835
548 1 12.4845 12.4845 0
549 1 11.5928 11.5928 0.89175
550 1 11.5928 13.3763 2.67525
551 1 13.3763 11.5928 2.67525
552 1 13.3763 13.3763 0.89175
553 1 14.268 10.701 0
554 1 14.268 12.4845 1.7835
555 1 16.0515 10.701 1.7835
556 1 16.0515 12.4845 0
557 1 15.1598 11.5928 0.89175
558 1 15.1598 13.3763 2.67525
559 1 16.9432 11.5928 2.67525
560 1 16.9432 13.3763 0.89175
561 1 0 14.268 0
562 1 0 16.0515 1.7835
563 1 1.7835 14.268 1.7835
564 1 1.7835 16.0515 0
565 1 0.89175 15.1598 0.89175
566 1 0.89175 16.9432 2.67525
567 1 2.67525 15.1598 2.67525
568 1 2.67525 16.9432 0.89175
569 1 3.567 14.268 0
570 1 3.567 16.0515 1.7835
571 1 5.3505 14.268 1.7835
572 1 5.3505 16.0515 0
573 1 4.45875 15.1598 0.89175
574 1 4.45875 16.9432 2.67525
575 1 6.24225 15.1598 2.67525
576 1 6.24225 16.9432 0.89175
577 1 7.134 14.268 0
578 1 7.134 16.0515 1.7835
579 1 8.9175 14.268 1.7835
580 1 8.9175 16.0515 0
581 1 8.02575 15.1598 0.89175
582 1 8.02575 16.9432 2.67525
583 1 9.80925 15.1598 2.67525
584 1 9.80925 16.9432 0.89175
585 1 10.701 14.268 0
586 1 10.701 16.0515 1.7835
587 1 12.4845 14.268 1.7835
588 1 12.4845 16.0515 0
589 1 11.5928 15.1598 0.89175
590 1 11.5928 16.9432 2.67525
591 1 13.3763 15.1598 2.67525
592 1 13.3763 16.9432 0.89175
593 1 14.268 14.268 0
594 1 14.268 16.0515 1.7835
595 1 16.0515 14.268 1.7835
596 1 16.0515 16.0515 0
597 1 15.1598 15.1598 0.89175
598 1 15.1598 16.9432 2.67525
599 1 16.9432 15.1598 2.67525
600 1 16.9432 16.9432 0.89175
601 1 0 8.9175 5.3505
602 1 1.7835 8.9175 3.567
603 1 0.89175 9.80925 6.24225
604 1 2.67525 9.80925 4.45875
605 1 3.567 8.9175 5.3505
606 1 5.3505 8.9175 3.567
607 1 4.45875 9.80925 6.24225
608 1 6.24225 9.80925 4.45875
609 1 7.134 8.9175 5.3505
610 1 8.9175 8.9175 3.567
611 1 8.02575 9.80925 6.24225
612 1 9.80925 9.80925 4.45875
613 1 10.701 8.9175 5.3505
614 1 12.4845 8.9175 3.567
615 1 11.5928 9.80925 6.24225
616 1 13.3763 9.80925 4.45875
617 1 14.268 8.9175 5.3505
618 1 16.0515 8.9175 3.567
619 1 15.1598 9.80925 6.24225
620 1 16.9432 9.80925 4.45875
621 1 0 10.701 3.567
622 1 0 12.4845 5.3505
623 1 1.7835 10.701 5.3505
624 1 1.7835 12.4845 3.567
625 1 0.89175 11.5928 4.45875
626 1 0.89175 13.3763 6.24225
627 1 2.67525 11.5928 6.24225
628 1 2.67525 13.3763 4.45875
629 1 3.567 10.701 3.567
630 1 3.567 12.4845 5.3505
631 1 5.3505 10.701 5.3505
632 1 5.3505 12.4845 3.567
633 1 4.45875 11.5928 4.45875
634 1 4.45875 13.3763 6.24225
635 1 6.24225 11.5928 6.24225
636 1 6.24225 13.3763 4.45875
637 1 7.134 10.701 3.567
638 1 7.134 12.4845 5.3505
639 1 8.9175 10.701 5.3505
640 1 8.9175 12.4845 3.567
641 1 8.02575 11.5928 4.45875
642 1 8.02575 13.3763 6.24225
643 1 9.80925 11.5928 6.24225
644 1 9.80925 13.3763 4.45875
645 1 10.701 10.701 3.567
646 1 10.701 12.4845 5.3505
647 1 12.4845 10.701 5.3505
648 1 12.4845 12.4845 3.567
649 1 11.5928 11.5928 4.45875
650 1 11.5928 13.3763 6.24225
651 1 13.3763 11.5928 6.24225
652 1 13.3763 13.3763 4.45875
653 1 14.268 10.701 3.567
654 1 14.268 12.4845 5.3505
655 1 16.0515 10.701 5.3505
656 1 16.0515 12.4845 3.567
657 1 15.1598 11.5928 4.45875
658 1 15.1598 13.3763 6.24225
659 1 16.9432 11.5928 6.24225
660 1 16.9432 13.3763 4.45875
661 1 0 14.268 3.567
662 1 0 16.0515 5.3505
663 1 1.7835 14.268 5.3505
664 1 1.7835 16.0515 3.567
665 1 0.89175 15.1598 4.45875
666 1 0.89175 16.9432 6.24225
667 1 2.67525 15.1598 6.24225
668 1 2.67525 16.9432 4.45875
669 1 3.567 14.268 3.567
670 1 3.567 16.0515 5.3505
671 1 5.3505 14.268 5.3505
672 1 5.3505 16.0515 3.567
673 1 4.45875 15.1598 4.45875
674 1 4.45875 16.9432 6.24225
675 1 6.24225 15.1598 6.24225
676 1 6.24225 16.9432 4.45875
677 1 7.134 14.268 3.567
678 1 7.134 16.0515 5.3505
679 1 8.9175 14.268 5.3505
680 1 8.9175 16.0515 3.567
681 1 8.02575 15.1598 4.45875
682 1 8.02575 16.9432 6.24225
683 1 9.80925 15.1598 6.24225
684 1 9.80925 16.9432 4.45875
685 1 10.701 14.268 3.567
686 1 10.701 16.0515 5.3505
687 1 12.4845 14.268 5.3505
688 1 12.4845 16.0515 3.567
689 1 11.5928 15.1598 4.45875
690 1 11.5928 16.9432 6.24225
691 1 13.3763 15.1598 6.24225
692 1 13.3763 16.9432 4.45875
693 1 14.268 14.268 3.567
694 1 14.268 16.0515 5.3505
695 1 16.0515 14.268 5.3505
696 1 16.0515 16.0515 3.567
697 1 15.1598 15.1598 4.45875
698 1 15.1598 16.9432 6.24225
699 1 16.9432 15.1598 6.24225
700 1 16.9432 16.9432 4.45875
701 1 1.7835 8.9175 7.134
702 1 2.67525 9.80925 8.02575
703 1 5.3505 8.9175 7.134
704 1 6.24225 9.80925 8.02575
705 1 8.9175 8.9175 7.134
706 1 9.80925 9.80925 8.02575
707 1 12.4845 8.9175 7.134
708 1 13.3763 9.80925 8.02575
709 1 16.0515 8.9175 7.134
710 1 16.9432 9.80925 8.02575
711 1 0 10.701 7.134
712 1 1.7835 12.4845 7.134
713 1 0.89175 11.5928 8.02575
714 1 2.67525 13.3763 8.02575
715 1 3.567 10.701 7.134
716 1 5.3505 12.4845 7.134
717 1 4.45875 11.5928 8.02575
718 1 6.24225 13.3763 8.02575
719 1 7.134 10.701 7.134
720 1 8.9175 12.4845 7.134
721 1 8.02575 11.5928 8.02575
722 1 9.80925 13.3763 8.02575
723 1 10.701 10.701 7.134
724 1 12.4845 12.4845 7.134
725 1 11.5928 11.5928 8.02575
726 1 13.3763 13.3763 8.02575
727 1 14.268 10.701 7.134
728 1 16.0515 12.4845 7.134
729 1 15.1598 11.5928 8.02575
730 1 16.9432 13.3763 8.02575
731 1 0 14.268 7.134
732 1 1.7835 16.0515 7.134
733 1 0.89175 15.1598 8.02575
734 1 2.67525 16.9432 8.02575
735 1 3.567 14.268 7.134
736 1 5.3505 16.0515 7.134
737 1 4.45875 15.1598 8.02575
738 1 6.24225 16.9432 8.02575
739 1 7.134 14.268 7.134
740 1 8.9175 16.0515 7.134
741 1 8.02575 15.1598 8.02575
742 1 9.80925 16.9432 8.02575
743 1 10.701 14.268 7.134
744 1 12.4845 16.0515 7.134
745 1 11.5928 15.1598 8.02575
746 1 13.3763 16.9432 8.02575
747 1 14.268 14.268 7.134
748 1 16.0515 16.0515 7.134
749 1 15.1598 15.1598 8.02575
750 1 16.9432 16.9432 8.02575
751 1 0 8.9175 8.9175
752 1 0.89175 9.80925 9.80925
753 1 3.567 8.9175 8.9175
754 1 4.45875 9.80925 9.80925
755 1 7.134 8.9175 8.9175
756 1 8.02575 9.80925 9.80925
757 1 10.701 8.9175 8.9175
758 1 11.5928 9.80925 9.80925
759 1 14.268 8.9175 8.9175
760 1 15.1598 9.80925 9.80925
761 1 0 12.4845 8.9175
762 1 1.7835 10.701 8.9175
763 1 0.89175 13.3763 9.80925
764 1 2.67525 11.5928 9.80925
765 1 3.567 12.4845 8.9175
766 1 5.3505 10.701 8.9175
767 1 4.45875 13.3763 9.80925
768 1 6.24225 11.5928 9.80925
769 1 7.134 12.4845 8.9175
770 1 8.9175 10.701 8.9175
771 1 8.02575 13.3763 9.80925
772 1 9.80925 11.5928 9.80925
773 1 10.701 12.4845 8.9175
774 1 12.4845 10.701 8.9175
775 1 11.5928 13.3763 9.80925
776 1 13.3763 11.5928 9.80925
777 1 14.268 12.4845 8.9175
778 1 16.0515 10.701 8.9175
779 1 15.1598 13.3763 9.80925
780 1 16.9432 11.5928 9.80925
781 1 0 16.0515 8.9175
782 1 1.7835 14.268 8.9175
783 1 0.89175 16.9432 9.80925
784 1 2.67525 15.1598 9.80925
785 1 3.567 16.0515 8.9175
786 1 5.3505 14.268 8.9175
787 1 4.45875 16.9432 9.80925
788 1 6.24225 15.1598 9.80925
789 1 7.134 16.0515 8.9175
790 1 8.9175 14.268 8.9175
791 1 8.02575 16.9432 9.80925
792 1 9.80925 15.1598 9.80925
793 1 10.701 16.0515 8.9175
794 1 12.4845 14.268 8.9175
795 1 11.5928 16.9432 9.80925
796 1 13.3763 15.1598 9.80925
797 1 14.268 16.0515 8.9175
798 1 16.0515 14.268 8.9175
799 1 15.1598 16.9432 9.80925
800 1 16.9432 15.1598 9.80925
801 1 0 8.9175 12.4845
802 1 1.7835 8.9175 10.701
803 1 0.89175 9.80925 13.3763
804 1 2.67525 9.80925 11.5928
805 1 3.567 8.9175 12.4845
806 1 5.3505 8.9175 10.701
807 1 4.45875 9.80925 13.3763
808 1 6.24225 9.80925 11.5928
809 1 7.134 8.9175 12.4845
810 1 8.9175 8.9175 10.701
811 1 8.02575 9.80925 13.3763
812 1 9.80925 9.80925 11.5928
813 1 10.701 8.9175 12.4845
814 1 12.4845 8.9175 10.701
815 1 11.5928 9.80925 13.3763
816 1 13.3763 9.80925 11.5928
817 1 14.268 8.9175 12.4845
818 1 16.0515 8.9175 10.701
819 1 15.1598 9.80925 13.3763
820 1 16.9432 9.80925 11.5928
821 1 0 10.701 10.701
822 1 0 12.4845 12.4845
823 1 1.7835 10.701 12.4845
824 1 1.7835 12.4845 10.701
825 1 0.89175 11.5928 11.5928
826 1 0.89175 13.3763 13.3763
827 1 2.67525 11.5928 13.3763
828 1 2.67525 13.3763 11.5928
829 1 3.567 10.701 10.701
830 1 3.567 12.4845 12.4845
831 1 5.3505 10.701 12.4845
832 1 5.3505 12.4845 10.701
833 1 4.45875 11.5928 11.5928
834 1 4.45875 13.3763 13.3763
835 1 6.24225 11.5928 13.3763
836 1 6.24225 13.3763 11.5928
837 1 7.134 10.701 10.701
838 1 7.134 12.4845 12.4845
839 1 8.9175 10.701 12.4845
840 1 8.9175 12.4845 10.701
841 1 8.02575 11.5928 11.5928
842 1 8.02575 13.3763 13.3763
843 1 9.80925 11.5928 13.3763
844 1 9.80925 13.3763 11.5928
845 1 10.701 10.701 10.701
846 1 10.701 12.4845 12.4845
847 1 12.4845 10.701 12.4845
848 1 12.4845 12.4845 10.701
849 1 11.5928 11.5928 11.5928
850 1 11.5928 13.3763 13.3763
851 1 13.3763 11.5928 13.3763
852 1 13.3763 13.3763 11.5928
853 1 14.268 10.701 10.701
854 1 14.268 12.4845 12.4845
855 1 16.0515 10.701 12.4845
856 1 16.0515 12.4845 10.701
857 1 15.1598 11.5928 11.5928
858 1 15.1598 13.3763 13.3763
859 1 16.9432 11.5928 13.3763
860 1 16.9432 13.3763 11.5928
861 1 0 14.268 10.701
862 1 0 16.0515 12.4845
863 1 1.7835 14.268 12.4845
864 1 1.7835 16.0515 10.701
865 1 0.89175 15.1598 11.5928
866 1 0.89175 16.9432 13.3763
867 1 2.67525 15.1598 13.3763
868 1 2.67525 16.9432 11.5928
869 1 3.567 14.268 10.701
870 1 3.567 16.0515 12.4845
871 1 5.3505 14.268 12.4845
872 1 5.3505 16.0515 10.701
873 1 4.45875 15.1598 11.5928
874 1 4.45875 16.9432 13.3763
875 1 6.24225 15.1598 13.3763
876 1 6.24225 16.9432 11.5928
877 1 7.134 14.268 10.701
878 1 7.134 16.0515 12.4845
879 1 8.9175 14.268 12.4845
880 1 8.9175 16.0515 10.701
881 1 8.02575 15.1598 11.5928
882 1 8.02575 16.9432 13.3763
883 1 9.80925 15.1598 13.3763
884 1 9.80925 16.9432 11.5928
885 1 10.701 14.268 10.701
886 1 10.701 16.0515 12.4845
887 1 12.4845 14.268 12.4845
888 1 12.4845 16.0515 10.701
889 1 11.5928 15.1598 11.5928
890 1 11.5928 16.9432 13.3763
891 1 13.3763 15.1598 13.3763
892 1 13.3763 16.9432 11.5928
893 1 14.268 14.268 10.701
894 1 14.268 16.0515 12.4845
895 1 16.0515 14.268 12.4845
896 1 16.0515 16.0515 10.701
897 1 15.1598 15.1598 11.5928
898 1 15.1598 16.9432 13.3763
899 1 16.9432 15.1598 13.3763
900 1 16.9432 16.9432 11.5928
901 1 0 8.9175 16.0515
902 1 1.7835 8.9175 14.268
903 1 0.89175 9.80925 16.9432
904 1 2.67525 9.80925 15.1598
905 1 3.567 8.9175 16.0515
906 1 5.3505 8.9175 14.268
907 1 4.45875 9.80925 16.9432
908 1 6.24225 9.80925 15.1598
909 1 7.134 8.9175 16.0515
910 1 8.9175 8.9175 14.268
911 1 8.02575 9.80925 16.9432
912 1 9.80925 9.80925 15.1598
913 1 10.701 8.9175 16.0515
914 1 12.4845 8.9175 14.268
915 1 11.5928 9.80925 16.9432
916 1 13.3763 9.80925 15.1598
917 1 14.268 8.9175 16.0515
918 1 16.0515 8.9175 14.268
919 1 15.1598 9.80925 16.9432
920 1 16.9432 9.80925 15.1598
921 1 0 10.701 14.268
922 1 0 12.4845 16.0515
923 1 1.7835 10.701 16.0515
924 1 1.7835 12.4845 14.268
925 1 0.89175 11.5928 15.1598
926 1 0.89175 13.3763 16.9432
927 1 2.67525 11.5928 16.9432
928 1 2.67525 13.3763 15.1598
929 1 3.567 10.701 14.268
930 1 3.567 12.4845 16.0515
931 1 5.3505 10.701 16.0515
932 1 5.3505 12.4845 14.268
933 1 4.45875 11.5928 15.1598
934 1 4.45875 13.3763 16.9432
935 1 6.24225 11.5928 16.9432
936 1 6.24225 13.3763 15.1598
937 1 7.134 10.701 14.268
938 1 7.134 12.4845 16.0515
939 1 8.9175 10.701 16.0515
940 1 8.9175 12.4845 14.268
941 1 8.02575 11.5928 15.1598
942 1 8.02575 13.3763 16.9432
943 1 9.80925 11.5928 16.9432
944 1 9.80925 13.3763 15.1598
945 1 10.701 10.701 14.268
946 1 10.701 12.4845 16.0515
947 1 12.4845 10.701 16.0515
948 1 12.4845 12.4845 14.268
949 1 11.5928 11.5928 15.1598
950 1 11.5928 13.3763 16.9432
951 1 13.3763 11.5928 16.9432
952 1 13.3763 13.3763 15.1598
953 1 14.268 10.701 14.268
954 1 14.268 12.4845 16.0515
955 1 16.0515 10.701 16.0515
956 1 16.0515 12.4845 14.268
957 1 15.1598 11.5928 15.1598
958 1 15.1598 13.3763 16.9432
959 1 16.9432 11.5928 16.9432
960 1 16.9432 13.3763 15.1598
961 1 0 14.268 14.268
962 1 0 16.0515 16.0515
963 1 1.7835 14.268 16.0515
964 1 1.7835 16.0515 14.268
965 1 0.89175 15.1598 15.1598
966 1 0.89175 16.9432 16.9432
967 1 2.67525 15.1598 16.9432
968 1 2.67525 16.9432 15.1598
969 1 3.567 14.268 14.268
970 1 3.567 16.0515 16.0515
971 1 5.3505 14.268 16.0515
972 1 5.3505 16.0515 14.268
973 1 4.45875 15.1598 15.1598
974 1 4.45875 16.9432 16.9432
975 1 6.24225 15.1598 16.9432
976 1 6.24225 16.9432 15.1598
977 1 7.134 14.268 14.268
978 1 7.134 16.0515 16.0515
979 1 8.9175 14.268 16.0515
980 1 8.9175 16.0515 14.268
981 1 8.02575 15.1598 15.1598
982 1 8.02575 16.9432 16.9432
983 1 9.80925 15.1598 16.9432
984 1 9.80925 16.9432 15.1598
985 1 10.701 14.268 14.268
986 1 10.701 16.0515 16.0515
987 1 12.4845 14.268 16.0515
988 1 12.4845 16.0515 14.268
989 1 11.5928 15.1598 15.1598
990 1 11.5928 16.9432 16.9432
991 1 13.3763 15.1598 16.9432
992 1 13.3763 16.9432 15.1598
993 1 14.268 14.268 14.268
994 1 14.268 16.0515 16.0515
995 1 16.0515 14.268 16.0515
996 1 16.0515 16.0515 14.268
997 1 15.1598 15.1598 15.1598
998 1 15.1598 16.9432 16.9432
999 1 16.9432 15.1598 16.9432
1000 1 16.9432 16.9432 15.1598
