ITEM: TIMESTEP
16
ITEM: NUMBER OF ATOMS
994
ITEM: BOX BOUNDS pp pp pp
0.0000000000000000e+00 1.7835000000000001e+01
0.0000000000000000e+00 1.7835000000000001e+01
0.0000000000000000e+00 1.7835000000000001e+01
ITEM: ATOMS id type x y z
5 1 0.860931 0.860931 0.860931
10 1 3.55648 1.77567 1.77567
13 1 4.44806 0.883745 0.883745
18 1 7.13188 1.78181 1.78181
21 1 8.02545 0.890957 0.890957
25 1 10.6991 0.000966156 0.000966156
26 1 10.7034 1.78101 1.78101
29 1 11.5956 0.889532 0.889532
34 1 14.273 1.762 1.762
37 1 15.1475 0.855 0.855
2 1 17.8224 1.76389 1.76389
43 1 1.77567 3.55648 1.77567
45 1 0.883745 4.44806 0.883745
8 1 2.65911 2.65911 0.879905
53 1 4.45147 4.45147 0.888767
16 1 6.23768 2.67147 0.889759
51 1 5.34534 3.56262 1.78194
57 1 7.13192 3.56399 1.47228e-05
61 1 8.02463 4.45628 0.891184
24 1 9.81039 2.67284 0.890824
59 1 8.91777 3.5647 1.78219
67 1 12.4888 3.56123 1.77935
69 1 11.5949 4.45549 0.891149
32 1 13.38 2.66921 0.886002
77 1 15.1602 4.45482 0.887263
40 1 16.9295 2.6527 0.869888
75 1 16.0509 3.554 1.77048
48 1 2.67147 6.23768 0.889759
50 1 3.56262 5.34534 1.78194
52 1 5.34605 5.34605 0.000480448
56 1 6.23947 6.23947 0.890998
58 1 7.13216 5.3481 1.78313
60 1 8.91793 5.34814 0.00029133
64 1 9.80963 6.24095 0.891708
66 1 10.7025 5.34825 1.78252
72 1 13.377 6.23891 0.893326
74 1 14.2708 5.34631 1.78138
42 1 17.8334 5.34484 1.77839
80 1 16.943 6.24086 0.889696
83 1 1.78181 7.13188 1.78181
85 1 0.890957 8.02545 0.890957
89 1 3.56399 7.13192 1.47228e-05
93 1 4.45628 8.02463 0.891184
91 1 5.3481 7.13216 1.78313
97 1 7.13261 7.13261 0.000748108
101 1 8.02594 8.02594 0.890749
99 1 8.91769 7.13376 1.78303
105 1 10.702 7.13366 0.000412167
107 1 12.486 7.13195 1.78455
109 1 11.5939 8.02409 0.894123
108 1 12.4898 8.91256 0.00617985
113 1 14.269 7.12995 0.00262826
117 1 15.1599 8.02572 0.891045
115 1 16.0524 7.13331 1.78194
121 1 0.000966156 10.6991 0.000966156
123 1 1.78101 10.7034 1.78101
88 1 2.67284 9.81039 0.890824
90 1 3.5647 8.91777 1.78219
92 1 5.34814 8.91793 0.00029133
96 1 6.24095 9.80963 0.891708
131 1 5.34825 10.7025 1.78252
98 1 7.13376 8.91769 1.78303
137 1 7.13366 10.702 0.000412167
104 1 9.81286 9.81286 0.888493
106 1 10.702 8.91886 1.78265
139 1 8.91886 10.702 1.78265
147 1 12.4856 10.7051 1.7787
112 1 13.3792 9.81375 0.888177
114 1 14.2685 8.9197 1.78145
82 1 17.8343 8.91757 1.78211
120 1 16.9417 9.80917 0.890864
155 1 16.0489 10.7029 1.78007
125 1 0.889532 11.5956 0.889532
130 1 3.56123 12.4888 1.77935
133 1 4.45549 11.5949 0.891149
138 1 7.13195 12.486 1.78455
141 1 8.02409 11.5939 0.894123
140 1 8.91256 12.4898 0.00617985
146 1 10.7051 12.4856 1.7787
149 1 11.6006 11.6006 0.881926
154 1 14.2662 12.487 1.77774
157 1 15.158 11.5956 0.886253
122 1 17.8313 12.4902 1.77621
156 1 16.0578 12.4806 0.00283906
163 1 1.762 14.273 1.762
165 1 0.855 15.1475 0.855
128 1 2.66921 13.38 0.886002
173 1 4.45482 15.1602 0.887263
136 1 6.23891 13.377 0.893326
171 1 5.34631 14.2708 1.78138
177 1 7.12995 14.269 0.00262826
181 1 8.02572 15.1599 0.891045
144 1 9.81375 13.3792 0.888177
179 1 8.9197 14.2685 1.78145
187 1 12.487 14.2662 1.77774
189 1 11.5956 15.158 0.886253
152 1 13.3805 13.3805 0.87987
197 1 15.1554 15.1554 0.89092
160 1 16.9381 13.3812 0.887156
195 1 16.0468 14.2681 1.78023
3 1 1.76389 17.8224 1.76389
168 1 2.6527 16.9295 0.869888
170 1 3.554 16.0509 1.77048
11 1 5.34484 17.8334 1.77839
176 1 6.24086 16.943 0.889696
178 1 7.13331 16.0524 1.78194
19 1 8.91757 17.8343 1.78211
184 1 9.80917 16.9417 0.890864
186 1 10.7029 16.0489 1.78007
27 1 12.4902 17.8313 1.77621
188 1 12.4806 16.0578 0.00283906
192 1 13.3812 16.9381 0.887156
194 1 14.2681 16.0468 1.78023
35 1 16.0401 17.8067 1.75532
162 1 17.8067 16.0401 1.75532
200 1 16.8967 16.8967 0.836205
204 1 1.77567 1.77567 3.55648
205 1 0.883745 0.883745 4.44806
7 1 2.65911 0.879905 2.65911
213 1 4.45147 0.888767 4.45147
15 1 6.23768 0.889759 2.67147
212 1 5.34534 1.78194 3.56262
217 1 7.13192 1.47228e-05 3.56399
221 1 8.02463 0.891184 4.45628
23 1 9.81039 0.890824 2.67284
220 1 8.91777 1.78219 3.5647
228 1 12.4888 1.77935 3.56123
229 1 11.5949 0.891149 4.45549
31 1 13.38 0.886002 2.66921
237 1 15.1602 0.887263 4.45482
39 1 16.9295 0.869888 2.6527
236 1 16.0509 1.77048 3.554
6 1 0.879905 2.65911 2.65911
245 1 0.888767 4.45147 4.45147
249 1 3.56248 3.56248 3.56248
14 1 4.44987 2.66866 2.66866
47 1 2.66866 4.44987 2.66866
208 1 2.66866 2.66866 4.44987
253 1 4.45479 4.45479 4.45479
55 1 6.23822 4.45569 2.67329
216 1 6.23822 2.67329 4.45569
22 1 8.02429 2.6737 2.6737
257 1 7.13181 3.56549 3.56549
261 1 8.02457 4.45758 4.45758
265 1 10.7031 3.56423 3.56423
63 1 9.80978 4.45676 2.67403
224 1 9.80978 2.67403 4.45676
30 1 11.5955 2.67218 2.67218
269 1 11.5944 4.45648 4.45648
38 1 15.1587 2.66026 2.66026
273 1 14.2725 3.55743 3.55743
71 1 13.3791 4.45385 2.67171
232 1 13.3791 2.67171 4.45385
277 1 15.1613 4.45186 4.45186
241 1 17.833 3.55726 3.55726
79 1 16.9404 4.44893 2.66552
240 1 16.9404 2.66552 4.44893
46 1 0.889759 6.23768 2.67147
244 1 1.78194 5.34534 3.56262
54 1 4.45569 6.23822 2.67329
248 1 2.67329 6.23822 4.45569
252 1 5.34802 5.34802 3.56611
256 1 6.24075 6.24075 4.45739
62 1 8.02498 6.24127 2.67417
260 1 8.91786 5.34951 3.56609
264 1 9.81018 6.24184 4.45826
70 1 11.5939 6.24006 2.67511
268 1 12.4874 5.34656 3.56392
78 1 15.1612 6.2398 2.67261
272 1 13.3784 6.23958 4.45593
276 1 16.0534 5.34459 3.5609
280 1 16.9434 6.23827 4.45431
281 1 1.47228e-05 7.13192 3.56399
285 1 0.891184 8.02463 4.45628
87 1 2.6737 8.02429 2.6737
289 1 3.56549 7.13181 3.56549
293 1 4.45758 8.02457 4.45758
95 1 6.24127 8.02498 2.67417
297 1 7.1338 7.1338 3.56693
301 1 8.02647 8.02647 4.45873
103 1 9.80998 8.02627 2.67467
305 1 10.7024 7.13363 3.56622
309 1 11.5947 8.02634 4.45781
111 1 13.3777 8.02654 2.67384
313 1 14.2699 7.13294 3.56451
317 1 15.161 8.02543 4.45702
119 1 16.9434 8.0255 2.67371
86 1 0.890824 9.81039 2.67284
284 1 1.78219 8.91777 3.5647
329 1 3.56423 10.7031 3.56423
94 1 4.45676 9.80978 2.67403
288 1 2.67403 9.80978 4.45676
292 1 5.34951 8.91786 3.56609
296 1 6.24184 9.81018 4.45826
102 1 8.02627 9.80998 2.67467
337 1 7.13363 10.7024 3.56622
300 1 8.91878 8.91878 3.56696
345 1 10.7034 10.7034 3.56601
304 1 9.81131 9.81131 4.4586
110 1 11.595 9.81234 2.6724
308 1 12.486 8.91946 3.56549
118 1 15.1594 9.81108 2.67382
353 1 14.2679 10.7033 3.56524
312 1 13.3775 9.8112 4.45841
321 1 17.8341 10.7037 3.56303
316 1 16.0517 8.91843 3.56479
320 1 16.9439 9.81079 4.45606
324 1 1.77935 12.4888 3.56123
325 1 0.891149 11.5949 4.45549
127 1 2.67218 11.5955 2.67218
333 1 4.45648 11.5944 4.45648
135 1 6.24006 11.5939 2.67511
332 1 5.34656 12.4874 3.56392
341 1 8.02634 11.5947 4.45781
143 1 9.81234 11.595 2.6724
340 1 8.91946 12.486 3.56549
348 1 12.4857 12.4857 3.56582
151 1 13.3767 11.5954 2.67233
158 1 15.1574 13.376 2.67276
357 1 15.16 11.5944 4.45726
159 1 16.9421 11.5958 2.6705
356 1 16.0505 12.4859 3.56435
126 1 0.886002 13.38 2.66921
365 1 0.887263 15.1602 4.45482
167 1 2.66026 15.1587 2.66026
369 1 3.55743 14.2725 3.55743
134 1 4.45385 13.3791 2.67171
328 1 2.67171 13.3791 4.45385
373 1 4.45186 15.1613 4.45186
175 1 6.2398 15.1612 2.67261
336 1 6.23958 13.3784 4.45593
142 1 8.02654 13.3777 2.67384
377 1 7.13294 14.2699 3.56451
381 1 8.02543 15.161 4.45702
183 1 9.81108 15.1594 2.67382
385 1 10.7033 14.2679 3.56524
344 1 9.8112 13.3775 4.45841
150 1 11.5954 13.3767 2.67233
191 1 13.376 15.1574 2.67276
389 1 11.5944 15.16 4.45726
393 1 14.2671 14.2671 3.56603
352 1 13.3765 13.3765 4.45851
361 1 17.8304 14.2693 3.56354
199 1 16.9353 15.1566 2.6727
360 1 16.9418 13.3767 4.45737
166 1 0.869888 16.9295 2.6527
364 1 1.77048 16.0509 3.554
209 1 3.55726 17.833 3.55726
174 1 4.44893 16.9404 2.66552
368 1 2.66552 16.9404 4.44893
372 1 5.34459 16.0534 3.5609
376 1 6.23827 16.9434 4.45431
182 1 8.0255 16.9434 2.67371
225 1 10.7037 17.8341 3.56303
380 1 8.91843 16.0517 3.56479
384 1 9.81079 16.9439 4.45606
190 1 11.5958 16.9421 2.6705
388 1 12.4859 16.0505 3.56435
233 1 14.2693 17.8304 3.56354
198 1 15.1566 16.9353 2.6727
392 1 13.3767 16.9418 4.45737
201 1 17.8259 17.8259 3.5544
396 1 16.0482 16.0482 3.56623
400 1 16.9398 16.9398 4.45631
207 1 2.67147 0.889759 6.23768
210 1 3.56262 1.78194 5.34534
211 1 5.34605 0.000480448 5.34605
215 1 6.23947 0.890998 6.23947
218 1 7.13216 1.78313 5.3481
219 1 8.91793 0.00029133 5.34814
223 1 9.80963 0.891708 6.24095
226 1 10.7025 1.78252 5.34825
231 1 13.377 0.893326 6.23891
234 1 14.2708 1.78138 5.34631
202 1 17.8334 1.77839 5.34484
239 1 16.943 0.889696 6.24086
206 1 0.889759 2.67147 6.23768
243 1 1.78194 3.56262 5.34534
214 1 4.45569 2.67329 6.23822
247 1 2.67329 4.45569 6.23822
251 1 5.34802 3.56611 5.34802
255 1 6.24075 4.45739 6.24075
222 1 8.02498 2.67417 6.24127
259 1 8.91786 3.56609 5.34951
263 1 9.81018 4.45826 6.24184
230 1 11.5939 2.67511 6.24006
267 1 12.4874 3.56392 5.34656
238 1 15.1612 2.67261 6.2398
271 1 13.3784 4.45593 6.23958
275 1 16.0534 3.5609 5.34459
279 1 16.9434 4.45431 6.23827
242 1 0.000480448 5.34605 5.34605
246 1 0.890998 6.23947 6.23947
250 1 3.56611 5.34802 5.34802
254 1 4.45739 6.24075 6.24075
258 1 7.13365 5.35035 5.35035
262 1 8.02659 6.24247 6.24247
266 1 10.7029 5.34899 5.34899
270 1 11.5944 6.24131 6.24131
274 1 14.2712 5.34561 5.34561
278 1 15.1621 6.23842 6.23842
283 1 1.78313 7.13216 5.3481
287 1 2.67417 8.02498 6.24127
291 1 5.35035 7.13365 5.35035
295 1 6.24247 8.02659 6.24247
299 1 8.91915 7.13481 5.35071
303 1 9.81087 8.02709 6.24317
307 1 12.4868 7.13229 5.34835
311 1 13.3788 8.02416 6.24002
315 1 16.0534 7.13191 5.34738
319 1 16.9445 8.02496 6.24014
282 1 0.00029133 8.91793 5.34814
286 1 0.891708 9.80963 6.24095
323 1 1.78252 10.7025 5.34825
290 1 3.56609 8.91786 5.34951
294 1 4.45826 9.81018 6.24184
331 1 5.34899 10.7029 5.34899
298 1 7.13481 8.91915 5.35071
302 1 8.02709 9.81087 6.24317
306 1 10.7033 8.91901 5.35112
339 1 8.91901 10.7033 5.35112
310 1 11.595 9.81149 6.24379
347 1 12.4866 10.7034 5.35147
314 1 14.2699 8.91818 5.34927
318 1 15.1621 9.81086 6.24114
355 1 16.0524 10.7024 5.34808
327 1 2.67511 11.5939 6.24006
330 1 3.56392 12.4874 5.34656
335 1 6.24131 11.5944 6.24131
338 1 7.13229 12.4868 5.34835
343 1 9.81149 11.595 6.24379
346 1 10.7034 12.4866 5.35147
349 1 11.5948 11.5948 4.459
351 1 13.378 11.5956 6.24428
354 1 14.2688 12.4858 5.3501
322 1 17.8348 12.4857 5.34862
359 1 16.9436 11.5932 6.24077
326 1 0.893326 13.377 6.23891
363 1 1.78138 14.2708 5.34631
367 1 2.67261 15.1612 6.2398
334 1 4.45593 13.3784 6.23958
371 1 5.34561 14.2712 5.34561
375 1 6.23842 15.1621 6.23842
342 1 8.02416 13.3788 6.24002
379 1 8.91818 14.2699 5.34927
383 1 9.81086 15.1621 6.24114
350 1 11.5956 13.378 6.24428
387 1 12.4858 14.2688 5.3501
358 1 15.1593 13.377 6.24323
391 1 13.377 15.1593 6.24323
397 1 15.1579 15.1579 4.45912
395 1 16.0509 14.2679 5.35066
399 1 16.9431 15.1603 6.24132
203 1 1.77839 17.8334 5.34484
366 1 0.889696 16.943 6.24086
370 1 3.5609 16.0534 5.34459
374 1 4.45431 16.9434 6.23827
378 1 7.13191 16.0534 5.34738
382 1 8.02496 16.9445 6.24014
386 1 10.7024 16.0524 5.34808
227 1 12.4857 17.8348 5.34862
390 1 11.5932 16.9436 6.24077
394 1 14.2679 16.0509 5.35066
398 1 15.1603 16.9431 6.24132
235 1 16.0519 17.8334 5.34856
362 1 17.8334 16.0519 5.34856
404 1 1.78181 1.78181 7.13188
405 1 0.890957 0.890957 8.02545
409 1 3.56399 1.47228e-05 7.13192
413 1 4.45628 0.891184 8.02463
412 1 5.3481 1.78313 7.13216
417 1 7.13261 0.000748108 7.13261
421 1 8.02594 0.890749 8.02594
420 1 8.91769 1.78303 7.13376
425 1 10.702 0.000412167 7.13366
428 1 12.486 1.78455 7.13195
429 1 11.5939 0.894123 8.02409
427 1 12.4898 0.00617985 8.91256
433 1 14.269 0.00262826 7.12995
437 1 15.1599 0.891045 8.02572
436 1 16.0524 1.78194 7.13331
441 1 1.47228e-05 3.56399 7.13192
445 1 0.891184 4.45628 8.02463
408 1 2.6737 2.6737 8.02429
449 1 3.56549 3.56549 7.13181
453 1 4.45758 4.45758 8.02457
416 1 6.24127 2.67417 8.02498
457 1 7.1338 3.56693 7.1338
461 1 8.02647 4.45873 8.02647
424 1 9.80998 2.67467 8.02627
465 1 10.7024 3.56622 7.13363
469 1 11.5947 4.45781 8.02634
432 1 13.3777 2.67384 8.02654
473 1 14.2699 3.56451 7.13294
477 1 15.161 4.45702 8.02543
440 1 16.9434 2.67371 8.0255
444 1 1.78313 5.3481 7.13216
448 1 2.67417 6.24127 8.02498
452 1 5.35035 5.35035 7.13365
456 1 6.24247 6.24247 8.02659
460 1 8.91915 5.35071 7.13481
464 1 9.81087 6.24317 8.02709
468 1 12.4868 5.34835 7.13229
472 1 13.3788 6.24002 8.02416
476 1 16.0534 5.34738 7.13191
480 1 16.9445 6.24014 8.02496
481 1 0.000748108 7.13261 7.13261
485 1 0.890749 8.02594 8.02594
489 1 3.56693 7.1338 7.1338
493 1 4.45873 8.02647 8.02647
497 1 7.13526 7.13526 7.13526
501 1 8.02737 8.02737 8.02737
505 1 10.7029 7.13391 7.13391
509 1 11.5962 8.0256 8.0256
508 1 12.4877 8.91659 7.13192
507 1 12.4877 7.13192 8.91659
513 1 14.2708 7.13069 7.13069
517 1 15.1633 8.02227 8.02227
514 1 14.2698 8.91159 8.91159
484 1 1.78303 8.91769 7.13376
521 1 0.000412167 10.702 7.13366
488 1 2.67467 9.80998 8.02627
529 1 3.56622 10.7024 7.13363
492 1 5.35071 8.91915 7.13481
496 1 6.24317 9.81087 8.02709
537 1 7.13391 10.7029 7.13391
500 1 8.91964 8.91964 7.13595
504 1 9.81237 9.81237 8.02887
545 1 10.7054 10.7054 7.13804
547 1 12.5029 10.6983 8.91285
512 1 13.3839 9.80554 8.02019
553 1 14.2723 10.7041 7.13408
516 1 16.0537 8.91809 7.13299
520 1 16.9418 9.81281 8.02801
524 1 1.78455 12.486 7.13195
525 1 0.894123 11.5939 8.02409
522 1 0.00617985 12.4898 8.91256
533 1 4.45781 11.5947 8.02634
532 1 5.34835 12.4868 7.13229
541 1 8.0256 11.5962 8.0256
540 1 8.91659 12.4877 7.13192
538 1 7.13192 12.4877 8.91659
546 1 10.6983 12.5029 8.91285
548 1 12.4891 12.4891 7.13854
549 1 11.5981 11.5981 8.03333
557 1 15.157 11.5998 8.03096
556 1 16.0515 12.484 7.13311
560 1 16.9496 13.3735 8.01783
561 1 0.00262826 14.269 7.12995
565 1 0.891045 15.1599 8.02572
528 1 2.67384 13.3777 8.02654
569 1 3.56451 14.2699 7.13294
573 1 4.45702 15.161 8.02543
536 1 6.24002 13.3788 8.02416
577 1 7.13069 14.2708 7.13069
581 1 8.02227 15.1633 8.02227
579 1 8.91159 14.2698 8.91159
544 1 9.80554 13.3839 8.02019
585 1 10.7041 14.2723 7.13408
589 1 11.5998 15.157 8.03096
552 1 13.3787 13.3787 8.03593
593 1 14.267 14.267 7.13667
597 1 15.1589 15.1589 8.02812
595 1 16.0607 14.2588 8.90682
564 1 1.78194 16.0524 7.13331
568 1 2.67371 16.9434 8.0255
572 1 5.34738 16.0534 7.13191
576 1 6.24014 16.9445 8.02496
580 1 8.91809 16.0537 7.13299
584 1 9.81281 16.9418 8.02801
588 1 12.484 16.0515 7.13311
592 1 13.3735 16.9496 8.01783
594 1 14.2588 16.0607 8.90682
401 1 17.8342 17.8342 7.13412
596 1 16.0509 16.0509 7.13431
600 1 16.9425 16.9425 8.02684
601 1 0.000966156 0.000966156 10.6991
604 1 1.78101 1.78101 10.7034
407 1 2.67284 0.890824 9.81039
410 1 3.5647 1.78219 8.91777
411 1 5.34814 0.00029133 8.91793
415 1 6.24095 0.891708 9.80963
612 1 5.34825 1.78252 10.7025
418 1 7.13376 1.78303 8.91769
617 1 7.13366 0.000412167 10.702
423 1 9.81286 0.888493 9.81286
426 1 10.702 1.78265 8.91886
620 1 8.91886 1.78265 10.702
628 1 12.4856 1.7787 10.7051
431 1 13.3792 0.888177 9.81375
434 1 14.2685 1.78145 8.9197
402 1 17.8343 1.78211 8.91757
439 1 16.9417 0.890864 9.80917
636 1 16.0489 1.78007 10.7029
406 1 0.890824 2.67284 9.81039
443 1 1.78219 3.5647 8.91777
649 1 3.56423 3.56423 10.7031
414 1 4.45676 2.67403 9.80978
447 1 2.67403 4.45676 9.80978
451 1 5.34951 3.56609 8.91786
455 1 6.24184 4.45826 9.81018
422 1 8.02627 2.67467 9.80998
657 1 7.13363 3.56622 10.7024
459 1 8.91878 3.56696 8.91878
665 1 10.7034 3.56601 10.7034
463 1 9.81131 4.4586 9.81131
430 1 11.595 2.6724 9.81234
467 1 12.486 3.56549 8.91946
438 1 15.1594 2.67382 9.81108
673 1 14.2679 3.56524 10.7033
471 1 13.3775 4.45841 9.8112
641 1 17.8341 3.56303 10.7037
475 1 16.0517 3.56479 8.91843
479 1 16.9439 4.45606 9.81079
442 1 0.00029133 5.34814 8.91793
446 1 0.891708 6.24095 9.80963
644 1 1.78252 5.34825 10.7025
450 1 3.56609 5.34951 8.91786
454 1 4.45826 6.24184 9.81018
652 1 5.34899 5.34899 10.7029
458 1 7.13481 5.35071 8.91915
462 1 8.02709 6.24317 9.81087
466 1 10.7033 5.35112 8.91901
660 1 8.91901 5.35112 10.7033
470 1 11.595 6.24379 9.81149
668 1 12.4866 5.35147 10.7034
474 1 14.2699 5.34927 8.91818
478 1 15.1621 6.24114 9.81086
676 1 16.0524 5.34808 10.7024
483 1 1.78303 7.13376 8.91769
681 1 0.000412167 7.13366 10.702
487 1 2.67467 8.02627 9.80998
689 1 3.56622 7.13363 10.7024
491 1 5.35071 7.13481 8.91915
495 1 6.24317 8.02709 9.81087
697 1 7.13391 7.13391 10.7029
499 1 8.91964 7.13595 8.91964
503 1 9.81237 8.02887 9.81237
705 1 10.7054 7.13804 10.7054
708 1 12.5029 8.91285 10.6983
511 1 13.3839 8.02019 9.80554
713 1 14.2723 7.13408 10.7041
515 1 16.0537 7.13299 8.91809
519 1 16.9418 8.02801 9.81281
486 1 0.888493 9.81286 9.81286
523 1 1.78265 10.702 8.91886
684 1 1.78265 8.91886 10.702
490 1 3.56696 8.91878 8.91878
729 1 3.56601 10.7034 10.7034
494 1 4.4586 9.81131 9.81131
531 1 5.35112 10.7033 8.91901
692 1 5.35112 8.91901 10.7033
498 1 7.13595 8.91964 8.91964
502 1 8.02887 9.81237 9.81237
737 1 7.13804 10.7054 10.7054
506 1 10.7075 8.92008 8.92008
539 1 8.92008 10.7075 8.92008
700 1 8.92008 8.92008 10.7075
745 1 10.6981 10.6981 10.6981
510 1 11.6054 9.81189 9.81189
518 1 15.1506 9.80432 9.80432
753 1 14.257 10.7144 10.7144
482 1 17.8341 8.91897 8.91897
721 1 17.8295 10.7061 10.7061
555 1 16.0503 10.7071 8.92348
716 1 16.0503 8.92348 10.7071
724 1 1.7787 12.4856 10.7051
527 1 2.6724 11.595 9.81234
530 1 3.56549 12.486 8.91946
535 1 6.24379 11.595 9.81149
732 1 5.35147 12.4866 10.7034
740 1 8.91285 12.5029 10.6983
543 1 9.81189 11.6054 9.81189
748 1 12.3192 12.3192 10.5351
551 1 13.3981 11.6036 9.8249
554 1 14.2692 12.4927 8.93455
558 1 15.1603 13.366 9.82043
559 1 16.9508 11.6089 9.80574
756 1 16.048 12.5118 10.7141
526 1 0.888177 13.3792 9.81375
563 1 1.78145 14.2685 8.9197
567 1 2.67382 15.1594 9.81108
769 1 3.56524 14.2679 10.7033
534 1 4.45841 13.3775 9.8112
571 1 5.34927 14.2699 8.91818
575 1 6.24114 15.1621 9.81086
542 1 8.02019 13.3839 9.80554
777 1 7.13408 14.2723 10.7041
583 1 9.80432 15.1506 9.80432
785 1 10.7144 14.257 10.7144
550 1 11.6036 13.3981 9.8249
587 1 12.4927 14.2692 8.93455
591 1 13.366 15.1603 9.82043
793 1 14.4613 14.4613 10.5229
761 1 17.8263 14.2642 10.7096
599 1 16.9387 15.1564 9.8118
403 1 1.78211 17.8343 8.91757
566 1 0.890864 16.9417 9.80917
764 1 1.78007 16.0489 10.7029
609 1 3.56303 17.8341 10.7037
570 1 3.56479 16.0517 8.91843
574 1 4.45606 16.9439 9.81079
772 1 5.34808 16.0524 10.7024
578 1 7.13299 16.0537 8.91809
582 1 8.02801 16.9418 9.81281
419 1 8.91897 17.8341 8.91897
625 1 10.7061 17.8295 10.7061
586 1 10.7071 16.0503 8.92348
780 1 8.92348 16.0503 10.7071
590 1 11.6089 16.9508 9.80574
788 1 12.5118 16.048 10.7141
633 1 14.2642 17.8263 10.7096
598 1 15.1564 16.9387 9.8118
435 1 16.0489 17.8326 8.91943
562 1 17.8326 16.0489 8.91943
796 1 16.057 16.057 10.7105
605 1 0.889532 0.889532 11.5956
610 1 3.56123 1.77935 12.4888
613 1 4.45549 0.891149 11.5949
618 1 7.13195 1.78455 12.486
621 1 8.02409 0.894123 11.5939
619 1 8.91256 0.00617985 12.4898
626 1 10.7051 1.7787 12.4856
629 1 11.6006 0.881926 11.6006
634 1 14.2662 1.77774 12.487
637 1 15.158 0.886253 11.5956
602 1 17.8313 1.77621 12.4902
635 1 16.0578 0.00283906 12.4806
643 1 1.77935 3.56123 12.4888
645 1 0.891149 4.45549 11.5949
608 1 2.67218 2.67218 11.5955
653 1 4.45648 4.45648 11.5944
616 1 6.24006 2.67511 11.5939
651 1 5.34656 3.56392 12.4874
661 1 8.02634 4.45781 11.5947
624 1 9.81234 2.6724 11.595
659 1 8.91946 3.56549 12.486
667 1 12.4857 3.56582 12.4857
632 1 13.3767 2.67233 11.5954
677 1 15.16 4.45726 11.5944
638 1 15.1574 2.67276 13.376
640 1 16.9421 2.6705 11.5958
675 1 16.0505 3.56435 12.4859
648 1 2.67511 6.24006 11.5939
650 1 3.56392 5.34656 12.4874
656 1 6.24131 6.24131 11.5944
658 1 7.13229 5.34835 12.4868
664 1 9.81149 6.24379 11.595
666 1 10.7034 5.35147 12.4866
669 1 11.5948 4.459 11.5948
672 1 13.378 6.24428 11.5956
674 1 14.2688 5.3501 12.4858
642 1 17.8348 5.34862 12.4857
680 1 16.9436 6.24077 11.5932
683 1 1.78455 7.13195 12.486
685 1 0.894123 8.02409 11.5939
682 1 0.00617985 8.91256 12.4898
693 1 4.45781 8.02634 11.5947
691 1 5.34835 7.13229 12.4868
701 1 8.0256 8.0256 11.5962
699 1 8.91659 7.13192 12.4877
698 1 7.13192 8.91659 12.4877
706 1 10.6983 8.91285 12.5029
707 1 12.4891 7.13854 12.4891
709 1 11.5981 8.03333 11.5981
717 1 15.157 8.03096 11.5998
715 1 16.0515 7.13311 12.484
719 1 16.9496 8.01783 13.3735
723 1 1.7787 10.7051 12.4856
688 1 2.6724 9.81234 11.595
690 1 3.56549 8.91946 12.486
696 1 6.24379 9.81149 11.595
731 1 5.35147 10.7034 12.4866
739 1 8.91285 10.6983 12.5029
704 1 9.81189 9.81189 11.6054
747 1 12.3192 10.5351 12.3192
712 1 13.3981 9.8249 11.6036
714 1 14.2692 8.93455 12.4927
718 1 15.1603 9.82043 13.366
720 1 16.9508 9.80574 11.6089
755 1 16.048 10.7141 12.5118
725 1 0.881926 11.6006 11.6006
730 1 3.56582 12.4857 12.4857
733 1 4.459 11.5948 11.5948
738 1 7.13854 12.4891 12.4891
741 1 8.03333 11.5981 11.5981
746 1 10.5351 12.3192 12.3192
749 1 11.6167 11.6167 11.6167
757 1 15.3542 11.4108 11.4108
722 1 17.8206 12.4918 12.4918
763 1 1.77774 14.2662 12.487
765 1 0.886253 15.158 11.5956
728 1 2.67233 13.3767 11.5954
773 1 4.45726 15.16 11.5944
767 1 2.67276 15.1574 13.376
736 1 6.24428 13.378 11.5956
771 1 5.3501 14.2688 12.4858
781 1 8.03096 15.157 11.5998
744 1 9.8249 13.3981 11.6036
779 1 8.93455 14.2692 12.4927
783 1 9.82043 15.1603 13.366
789 1 11.4108 15.3542 11.4108
797 1 15.1565 15.1565 11.6256
760 1 16.9203 13.3889 11.6169
795 1 16.0577 14.3021 12.4974
603 1 1.77621 17.8313 12.4902
762 1 0.00283906 16.0578 12.4806
768 1 2.6705 16.9421 11.5958
770 1 3.56435 16.0505 12.4859
611 1 5.34862 17.8348 12.4857
776 1 6.24077 16.9436 11.5932
778 1 7.13311 16.0515 12.484
782 1 8.01783 16.9496 13.3735
784 1 9.80574 16.9508 11.6089
786 1 10.7141 16.048 12.5118
627 1 12.4918 17.8206 12.4918
792 1 13.3889 16.9203 11.6169
794 1 14.3021 16.0577 12.4974
800 1 16.9477 16.9477 11.5928
804 1 1.762 1.762 14.273
805 1 0.855 0.855 15.1475
607 1 2.66921 0.886002 13.38
813 1 4.45482 0.887263 15.1602
615 1 6.23891 0.893326 13.377
812 1 5.34631 1.78138 14.2708
817 1 7.12995 0.00262826 14.269
821 1 8.02572 0.891045 15.1599
623 1 9.81375 0.888177 13.3792
820 1 8.9197 1.78145 14.2685
828 1 12.487 1.77774 14.2662
829 1 11.5956 0.886253 15.158
631 1 13.3805 0.87987 13.3805
837 1 15.1554 0.89092 15.1554
639 1 16.9381 0.887156 13.3812
836 1 16.0468 1.78023 14.2681
606 1 0.886002 2.66921 13.38
845 1 0.887263 4.45482 15.1602
808 1 2.66026 2.66026 15.1587
849 1 3.55743 3.55743 14.2725
614 1 4.45385 2.67171 13.3791
647 1 2.67171 4.45385 13.3791
853 1 4.45186 4.45186 15.1613
816 1 6.2398 2.67261 15.1612
655 1 6.23958 4.45593 13.3784
622 1 8.02654 2.67384 13.3777
857 1 7.13294 3.56451 14.2699
861 1 8.02543 4.45702 15.161
824 1 9.81108 2.67382 15.1594
865 1 10.7033 3.56524 14.2679
663 1 9.8112 4.45841 13.3775
630 1 11.5954 2.67233 13.3767
832 1 13.376 2.67276 15.1574
869 1 11.5944 4.45726 15.16
873 1 14.2671 3.56603 14.2671
671 1 13.3765 4.45851 13.3765
841 1 17.8304 3.56354 14.2693
840 1 16.9353 2.6727 15.1566
679 1 16.9418 4.45737 13.3767
646 1 0.893326 6.23891 13.377
844 1 1.78138 5.34631 14.2708
848 1 2.67261 6.2398 15.1612
654 1 4.45593 6.23958 13.3784
852 1 5.34561 5.34561 14.2712
856 1 6.23842 6.23842 15.1621
662 1 8.02416 6.24002 13.3788
860 1 8.91818 5.34927 14.2699
864 1 9.81086 6.24114 15.1621
670 1 11.5956 6.24428 13.378
868 1 12.4858 5.3501 14.2688
678 1 15.1593 6.24323 13.377
872 1 13.377 6.24323 15.1593
877 1 15.1579 4.45912 15.1579
876 1 16.0509 5.35066 14.2679
880 1 16.9431 6.24132 15.1603
881 1 0.00262826 7.12995 14.269
885 1 0.891045 8.02572 15.1599
687 1 2.67384 8.02654 13.3777
889 1 3.56451 7.13294 14.2699
893 1 4.45702 8.02543 15.161
695 1 6.24002 8.02416 13.3788
897 1 7.13069 7.13069 14.2708
901 1 8.02227 8.02227 15.1633
900 1 8.91159 8.91159 14.2698
703 1 9.80554 8.02019 13.3839
905 1 10.7041 7.13408 14.2723
909 1 11.5998 8.03096 15.157
711 1 13.3787 8.03593 13.3787
913 1 14.267 7.13667 14.267
917 1 15.1589 8.02812 15.1589
916 1 16.0607 8.90682 14.2588
686 1 0.888177 9.81375 13.3792
884 1 1.78145 8.9197 14.2685
888 1 2.67382 9.81108 15.1594
929 1 3.56524 10.7033 14.2679
694 1 4.45841 9.8112 13.3775
892 1 5.34927 8.91818 14.2699
896 1 6.24114 9.81086 15.1621
702 1 8.02019 9.80554 13.3839
937 1 7.13408 10.7041 14.2723
904 1 9.80432 9.80432 15.1506
945 1 10.7144 10.7144 14.257
710 1 11.6036 9.8249 13.3981
908 1 12.4927 8.93455 14.2692
912 1 13.366 9.82043 15.1603
953 1 14.4613 10.5229 14.4613
921 1 17.8263 10.7096 14.2642
920 1 16.9387 9.8118 15.1564
924 1 1.77774 12.487 14.2662
925 1 0.886253 11.5956 15.158
727 1 2.67233 11.5954 13.3767
933 1 4.45726 11.5944 15.16
928 1 2.67276 13.376 15.1574
735 1 6.24428 11.5956 13.378
932 1 5.3501 12.4858 14.2688
941 1 8.03096 11.5998 15.157
743 1 9.8249 11.6036 13.3981
940 1 8.93455 12.4927 14.2692
944 1 9.82043 13.366 15.1603
949 1 11.4108 11.4108 15.3542
957 1 15.1565 11.6256 15.1565
759 1 16.9203 11.6169 13.3889
956 1 16.0577 12.4974 14.3021
726 1 0.87987 13.3805 13.3805
965 1 0.89092 15.1554 15.1554
969 1 3.56603 14.2671 14.2671
734 1 4.45851 13.3765 13.3765
775 1 6.24323 15.1593 13.377
936 1 6.24323 13.377 15.1593
973 1 4.45912 15.1579 15.1579
742 1 8.03593 13.3787 13.3787
977 1 7.13667 14.267 14.267
981 1 8.02812 15.1589 15.1589
985 1 10.5229 14.4613 14.4613
989 1 11.6256 15.1565 15.1565
754 2 15.3889 15.3889 15.3889
758 1 15.4151 13.671 13.671
791 1 13.671 15.4151 13.671
952 1 13.671 13.671 15.4151
993 1 14.4636 14.4636 14.4636
961 1 17.8295 14.2728 14.2728
799 1 16.9527 15.2187 13.4265
960 1 16.9527 13.4265 15.2187
766 1 0.887156 16.9381 13.3812
964 1 1.78023 16.0468 14.2681
809 1 3.56354 17.8304 14.2693
968 1 2.6727 16.9353 15.1566
774 1 4.45737 16.9418 13.3767
972 1 5.35066 16.0509 14.2679
976 1 6.24132 16.9431 15.1603
980 1 8.90682 16.0607 14.2588
825 1 10.7096 17.8263 14.2642
984 1 9.8118 16.9387 15.1564
790 1 11.6169 16.9203 13.3889
988 1 12.4974 16.0577 14.3021
833 1 14.2728 17.8295 14.2728
798 1 15.2187 16.9527 13.4265
992 1 13.4265 16.9527 15.2187
801 1 17.7753 17.7753 14.2746
750 2 16.8732 16.8732 15.1169
787 2 16.1487 16.1487 14.3231
4 1 1.76389 1.76389 17.8224
807 1 2.6527 0.869888 16.9295
810 1 3.554 1.77048 16.0509
12 1 5.34484 1.77839 17.8334
815 1 6.24086 0.889696 16.943
818 1 7.13331 1.78194 16.0524
20 1 8.91757 1.78211 17.8343
823 1 9.80917 0.890864 16.9417
826 1 10.7029 1.78007 16.0489
28 1 12.4902 1.77621 17.8313
827 1 12.4806 0.00283906 16.0578
831 1 13.3812 0.887156 16.9381
834 1 14.2681 1.78023 16.0468
36 1 16.0401 1.75532 17.8067
802 1 17.8067 1.75532 16.0401
839 1 16.8967 0.836205 16.8967
806 1 0.869888 2.6527 16.9295
843 1 1.77048 3.554 16.0509
49 1 3.55726 3.55726 17.833
814 1 4.44893 2.66552 16.9404
847 1 2.66552 4.44893 16.9404
851 1 5.34459 3.5609 16.0534
855 1 6.23827 4.45431 16.9434
822 1 8.0255 2.67371 16.9434
65 1 10.7037 3.56303 17.8341
859 1 8.91843 3.56479 16.0517
863 1 9.81079 4.45606 16.9439
830 1 11.5958 2.6705 16.9421
867 1 12.4859 3.56435 16.0505
73 1 14.2693 3.56354 17.8304
838 1 15.1566 2.6727 16.9353
871 1 13.3767 4.45737 16.9418
41 1 17.8259 3.5544 17.8259
875 1 16.0482 3.56623 16.0482
879 1 16.9398 4.45631 16.9398
44 1 1.77839 5.34484 17.8334
846 1 0.889696 6.24086 16.943
850 1 3.5609 5.34459 16.0534
854 1 4.45431 6.23827 16.9434
858 1 7.13191 5.34738 16.0534
862 1 8.02496 6.24014 16.9445
866 1 10.7024 5.34808 16.0524
68 1 12.4857 5.34862 17.8348
870 1 11.5932 6.24077 16.9436
874 1 14.2679 5.35066 16.0509
878 1 15.1603 6.24132 16.9431
76 1 16.0519 5.34856 17.8334
842 1 17.8334 5.34856 16.0519
883 1 1.78194 7.13331 16.0524
887 1 2.67371 8.0255 16.9434
891 1 5.34738 7.13191 16.0534
895 1 6.24014 8.02496 16.9445
899 1 8.91809 7.13299 16.0537
903 1 9.81281 8.02801 16.9418
907 1 12.484 7.13311 16.0515
911 1 13.3735 8.01783 16.9496
914 1 14.2588 8.90682 16.0607
81 1 17.8342 7.13412 17.8342
915 1 16.0509 7.13431 16.0509
919 1 16.9425 8.02684 16.9425
84 1 1.78211 8.91757 17.8343
886 1 0.890864 9.80917 16.9417
923 1 1.78007 10.7029 16.0489
129 1 3.56303 10.7037 17.8341
890 1 3.56479 8.91843 16.0517
894 1 4.45606 9.81079 16.9439
931 1 5.34808 10.7024 16.0524
898 1 7.13299 8.91809 16.0537
902 1 8.02801 9.81281 16.9418
100 1 8.91897 8.91897 17.8341
145 1 10.7061 10.7061 17.8295
906 1 10.7071 8.92348 16.0503
939 1 8.92348 10.7071 16.0503
910 1 11.6089 9.80574 16.9508
947 1 12.5118 10.7141 16.048
153 1 14.2642 10.7096 17.8263
918 1 15.1564 9.8118 16.9387
116 1 16.0489 8.91943 17.8326
882 1 17.8326 8.91943 16.0489
955 1 16.057 10.7105 16.057
124 1 1.77621 12.4902 17.8313
922 1 0.00283906 12.4806 16.0578
927 1 2.6705 11.5958 16.9421
930 1 3.56435 12.4859 16.0505
132 1 5.34862 12.4857 17.8348
935 1 6.24077 11.5932 16.9436
938 1 7.13311 12.484 16.0515
942 1 8.01783 13.3735 16.9496
943 1 9.80574 11.6089 16.9508
946 1 10.7141 12.5118 16.048
148 1 12.4918 12.4918 17.8206
951 1 13.3889 11.6169 16.9203
954 1 14.3021 12.4974 16.0577
959 1 16.9477 11.5928 16.9477
926 1 0.887156 13.3812 16.9381
963 1 1.78023 14.2681 16.0468
169 1 3.56354 14.2693 17.8304
967 1 2.6727 15.1566 16.9353
934 1 4.45737 13.3767 16.9418
971 1 5.35066 14.2679 16.0509
975 1 6.24132 15.1603 16.9431
979 1 8.90682 14.2588 16.0607
185 1 10.7096 14.2642 17.8263
983 1 9.8118 15.1564 16.9387
950 1 11.6169 13.3889 16.9203
987 1 12.4974 14.3021 16.0577
193 1 14.2728 14.2728 17.8295
958 1 15.2187 13.4265 16.9527
991 1 13.4265 15.2187 16.9527
161 1 17.7753 14.2746 17.7753
751 2 16.8732 15.1169 16.8732
948 2 16.1487 14.3231 16.1487
164 1 1.75532 16.0401 17.8067
803 1 1.75532 17.8067 16.0401
966 1 0.836205 16.8967 16.8967
9 1 3.5544 17.8259 17.8259
970 1 3.56623 16.0482 16.0482
974 1 4.45631 16.9398 16.9398
172 1 5.34856 16.0519 17.8334
811 1 5.34856 17.8334 16.0519
17 1 7.13412 17.8342 17.8342
978 1 7.13431 16.0509 16.0509
982 1 8.02684 16.9425 16.9425
180 1 8.91943 16.0489 17.8326
819 1 8.91943 17.8326 16.0489
986 1 10.7105 16.057 16.057
990 1 11.5928 16.9477 16.9477
33 1 14.2746 17.7753 17.7753
752 2 15.1169 16.8732 16.8732
994 2 14.3231 16.1487 16.1487
1 1 17.7996 17.7996 17.7996
196 1 15.9975 15.9975 17.7404
835 1 15.9975 17.7404 15.9975
962 1 17.7404 15.9975 15.9975
