ITEM: TIMESTEP
1000
ITEM: NUMBER OF ATOMS
8000
ITEM: BOX BOUNDS pp pp pp
0.0000000000000000e+00 3.5670000000000002e+01
0.0000000000000000e+00 3.5670000000000002e+01
0.0000000000000000e+00 3.5670000000000002e+01
ITEM: ATOMS id type xs ys zs
1 1 -0.00213316 0.000502771 -0.000618384
2 1 -4.93877e-05 0.0498834 0.050935
3 1 0.049848 0.000887749 0.0498007
4 1 0.0503829 0.0496682 -9.27088e-06
5 1 0.0244864 0.0245769 0.0251019
9 1 0.0986478 0.00136 -0.000276476
10 1 0.0991762 0.0506861 0.0486928
11 1 0.149891 6.27971e-05 0.0483714
12 1 0.150905 0.0514979 0.000306576
13 1 0.123861 0.0255328 0.0241392
17 1 0.200648 0.00101211 0.000216291
18 1 0.20011 0.0503124 0.0505355
21 1 0.225336 0.0250988 0.0253637
19 1 0.25081 -1.24352e-05 0.0504983
20 1 0.250798 0.0504476 0.000598727
25 1 0.29903 0.000563853 -0.000105834
26 1 0.299318 0.0505997 0.0495138
27 1 0.349673 -0.000676594 0.0505766
28 1 0.349634 0.0512426 -0.000773045
29 1 0.324602 0.0242972 0.0249056
33 1 0.400341 -0.000544954 -0.000549347
34 1 0.398566 0.0500867 0.0499965
35 1 0.449617 0.00133397 0.0485931
36 1 0.450245 0.0499488 -4.31497e-05
37 1 0.424487 0.0250818 0.0242389
41 1 0.499649 -0.000336301 -1.66806e-05
42 1 0.499966 0.0496729 0.0502535
45 1 0.524958 0.0241271 0.0253062
43 1 0.549778 -0.00121863 0.0499211
44 1 0.55125 0.0510588 -0.000505554
49 1 0.600211 -0.00087198 0.000589383
50 1 0.600405 0.0490345 0.0501222
53 1 0.624431 0.0252764 0.0252652
51 1 0.649397 -0.000134422 0.0496287
52 1 0.65001 0.0500185 -0.000101482
57 1 0.699929 0.000634828 -0.000484911
58 1 0.700196 0.0490554 0.0495597
59 1 0.749378 0.00053946 0.0498221
60 1 0.749499 0.050099 0.000279077
61 1 0.724211 0.0245001 0.0255032
65 1 0.798496 -0.000748166 0.000243212
66 1 0.800832 0.0506555 0.049819
67 1 0.850441 -0.000387389 0.0499543
68 1 0.848681 0.0512644 0.00054819
69 1 0.825246 0.0244848 0.0256044
73 1 0.899566 0.00144336 0.000680212
74 1 0.899807 0.0499631 0.0496932
77 1 0.923326 0.0255573 0.0244891
75 1 0.948748 0.000340943 0.0498226
76 1 0.949483 0.0511346 -0.000461355
81 1 -0.000774131 0.0996201 0.000574195
83 1 0.0498369 0.0993904 0.0500509
8 1 0.0745157 0.0763006 0.025525
89 1 0.0985846 0.101502 0.000686322
16 1 0.174917 0.0759596 0.0245562
91 1 0.149272 0.0995271 0.050734
97 1 0.199096 0.101152 -5.35244e-05
24 1 0.275648 0.0750099 0.0247821
99 1 0.250336 0.100737 0.0492521
105 1 0.300202 0.100864 0.000577118
107 1 0.349886 0.100162 0.0495138
32 1 0.374059 0.0751435 0.024712
113 1 0.401041 0.0995494 0.000130916
115 1 0.44998 0.098207 0.0495018
40 1 0.475601 0.0748895 0.0252947
121 1 0.500998 0.0990308 0.00025005
48 1 0.577109 0.0750242 0.0248834
123 1 0.551307 0.100307 0.0505004
129 1 0.602209 0.100481 -2.34315e-05
56 1 0.675444 0.0755364 0.024969
131 1 0.650025 0.100438 0.0486178
137 1 0.699558 0.100714 0.000412623
139 1 0.749884 0.100474 0.0498086
64 1 0.775608 0.0766151 0.0244758
145 1 0.800089 0.101291 -0.000252486
72 1 0.874524 0.0753389 0.0252561
147 1 0.849452 0.100969 0.0502425
153 1 0.899759 0.101593 0.000185993
80 1 0.974661 0.0736759 0.0253045
155 1 0.950223 0.0995046 0.0495488
82 1 -0.000877058 0.149712 0.0498753
84 1 0.0493355 0.150244 0.000337749
85 1 0.0243895 0.12479 0.0252604
88 1 0.0759034 0.175459 0.0244172
90 1 0.0997651 0.150234 0.0507821
92 1 0.149276 0.14926 -0.000253958
93 1 0.123903 0.124949 0.024792
96 1 0.174015 0.174366 0.0258713
98 1 0.199083 0.148689 0.0509603
101 1 0.223932 0.125448 0.025084
100 1 0.249852 0.150486 0.000885748
104 1 0.276114 0.175822 0.024461
106 1 0.300601 0.151041 0.0496348
108 1 0.350414 0.149639 -0.00119493
109 1 0.326742 0.124536 0.0253074
112 1 0.374349 0.175842 0.0253847
114 1 0.39879 0.151457 0.0492775
116 1 0.450537 0.149323 -7.14802e-05
117 1 0.424166 0.124749 0.0241049
120 1 0.475143 0.173662 0.0247915
122 1 0.499869 0.149676 0.0489088
125 1 0.526409 0.124475 0.0251199
124 1 0.551451 0.149505 0.00032191
128 1 0.575938 0.174484 0.0241
130 1 0.601836 0.149485 0.0506149
133 1 0.626669 0.124166 0.0235794
132 1 0.65058 0.150011 0.000762116
136 1 0.67545 0.17549 0.0252043
138 1 0.701046 0.151435 0.0503856
140 1 0.749347 0.14935 -0.000370144
141 1 0.724444 0.125502 0.0243748
144 1 0.774384 0.175691 0.0256854
146 1 0.800138 0.150705 0.0502041
148 1 0.849109 0.151171 -0.000124794
149 1 0.825621 0.125325 0.0238357
152 1 0.87531 0.176036 0.0245548
154 1 0.899496 0.149049 0.0494534
157 1 0.924538 0.125565 0.0249658
156 1 0.94871 0.149008 -0.000579208
160 1 0.974219 0.17412 0.0232455
161 1 0.000396427 0.200604 -0.000717742
163 1 0.0489566 0.198922 0.0497434
165 1 0.0250535 0.225432 0.0249946
169 1 0.100353 0.199789 -0.000394935
171 1 0.148631 0.199404 0.0506336
173 1 0.125488 0.224422 0.025144
177 1 0.199185 0.201792 -0.00076983
181 1 0.223987 0.22572 0.0248772
179 1 0.249887 0.199817 0.0496609
185 1 0.300331 0.199495 -0.000590406
187 1 0.349835 0.199736 0.0500323
189 1 0.325125 0.224403 0.0239162
193 1 0.400299 0.200343 -0.000516597
195 1 0.450294 0.199893 0.0501265
197 1 0.42528 0.224549 0.0249891
201 1 0.50064 0.199033 0.000978272
205 1 0.525274 0.224065 0.0256175
203 1 0.549402 0.199697 0.0502418
209 1 0.600418 0.199482 -0.000323173
213 1 0.625052 0.224943 0.0265312
211 1 0.649938 0.199424 0.0507993
217 1 0.700045 0.200664 0.00042743
219 1 0.749305 0.199913 0.0497102
221 1 0.724239 0.22578 0.0258498
225 1 0.801009 0.199564 0.000156369
227 1 0.851776 0.200732 0.0501767
229 1 0.826487 0.224686 0.0242433
233 1 0.9015 0.200723 0.00134406
237 1 0.925982 0.225898 0.0245117
235 1 0.949859 0.199859 0.0503581
162 1 0.000182433 0.250433 0.0503933
164 1 0.0506967 0.250603 -0.000452455
241 1 0.000223858 0.299925 0.00010785
243 1 0.0494825 0.299824 0.0503333
168 1 0.0742654 0.275531 0.0248282
170 1 0.098645 0.250702 0.0497559
249 1 0.0988771 0.300167 -2.63179e-05
172 1 0.14989 0.249924 -0.000363176
176 1 0.17436 0.274876 0.0247923
251 1 0.150181 0.299134 0.0491392
178 1 0.199446 0.250032 0.0500608
257 1 0.198952 0.300037 -0.000459483
180 1 0.250124 0.250311 0.000113379
184 1 0.274981 0.275452 0.0238246
259 1 0.250252 0.300092 0.0508936
186 1 0.300738 0.249568 0.0497058
188 1 0.350363 0.249615 -0.0015139
265 1 0.300281 0.299575 -0.000663674
267 1 0.350518 0.300487 0.0497155
192 1 0.375392 0.274964 0.0244013
194 1 0.400658 0.250043 0.0491042
273 1 0.39947 0.300101 -0.00058411
196 1 0.450555 0.249434 -0.00017962
275 1 0.450139 0.298677 0.0501316
200 1 0.475467 0.274201 0.0239354
202 1 0.501816 0.250016 0.0485704
281 1 0.50026 0.299307 9.49256e-05
204 1 0.549054 0.249645 -0.000177465
208 1 0.5762 0.273312 0.023174
283 1 0.549977 0.300013 0.0496353
210 1 0.600381 0.249872 0.0495885
289 1 0.599874 0.30034 -0.0019248
212 1 0.649129 0.249402 -0.000434224
216 1 0.674619 0.273343 0.0245459
218 1 0.698511 0.24923 0.0513692
291 1 0.650126 0.300322 0.0492347
297 1 0.699527 0.300494 0.000570938
220 1 0.749473 0.25135 0.000332763
299 1 0.748774 0.300822 0.0507337
224 1 0.773622 0.27539 0.0245366
226 1 0.800694 0.249926 0.0498448
305 1 0.800018 0.300697 -0.000160754
228 1 0.849299 0.251807 7.68133e-05
232 1 0.875207 0.275432 0.0240707
307 1 0.851252 0.300177 0.0500619
234 1 0.89994 0.24938 0.0495933
313 1 0.899957 0.300128 -0.000216727
236 1 0.949846 0.250642 -1.61282e-05
240 1 0.975662 0.275288 0.0253119
315 1 0.949567 0.299537 0.0505791
242 1 0.000549476 0.350045 0.0505016
244 1 0.0489263 0.351379 0.00137488
245 1 0.0251728 0.325159 0.0244611
250 1 0.0995832 0.350146 0.0501202
252 1 0.15051 0.349932 0.000542432
253 1 0.125311 0.324094 0.0259761
258 1 0.200186 0.350586 0.0497166
261 1 0.2255 0.325119 0.0247272
260 1 0.249335 0.349785 -0.000551895
266 1 0.300085 0.351013 0.048904
268 1 0.351011 0.348947 0.00087228
269 1 0.325698 0.323789 0.0250862
274 1 0.40123 0.350438 0.0509515
276 1 0.451744 0.349139 -0.000540459
277 1 0.424568 0.323803 0.0246388
282 1 0.500828 0.348677 0.0508966
285 1 0.526495 0.325521 0.0247984
284 1 0.550218 0.350151 -0.00122577
290 1 0.599704 0.350419 0.05124
293 1 0.623593 0.325156 0.025412
292 1 0.649991 0.349732 0.00193948
298 1 0.699688 0.349524 0.0510452
300 1 0.750255 0.350542 -0.000205725
301 1 0.724638 0.325631 0.0249351
306 1 0.799363 0.351378 0.0506769
308 1 0.850647 0.349659 0.000459144
309 1 0.824288 0.325137 0.025689
314 1 0.901207 0.350237 0.0487628
317 1 0.92413 0.324936 0.0238858
316 1 0.949721 0.35063 -0.000883749
321 1 0.000371492 0.400495 -0.00108609
323 1 0.04938 0.399213 0.0502201
325 1 0.025629 0.424248 0.0237486
248 1 0.0748953 0.374813 0.0249515
329 1 0.100914 0.399597 0.00146309
256 1 0.176298 0.374912 0.0241462
331 1 0.150313 0.399254 0.0499058
333 1 0.126714 0.424978 0.0261226
337 1 0.201859 0.399923 -0.00115769
341 1 0.22674 0.42459 0.0247997
264 1 0.2757 0.375445 0.0235014
339 1 0.251664 0.400886 0.049989
345 1 0.300786 0.400002 -9.00652e-05
347 1 0.350498 0.400373 0.0497039
349 1 0.324905 0.42464 0.0252814
272 1 0.375743 0.375469 0.0261436
353 1 0.40059 0.399972 -0.00058772
355 1 0.450945 0.399682 0.0492749
357 1 0.426211 0.424843 0.0242066
280 1 0.475125 0.373612 0.0251299
361 1 0.500084 0.399727 0.000743001
365 1 0.524419 0.423805 0.025303
288 1 0.575533 0.375242 0.0251333
363 1 0.550255 0.399506 0.0510202
369 1 0.600271 0.400433 0.000832844
373 1 0.624691 0.425889 0.0249053
296 1 0.674965 0.37509 0.0254625
371 1 0.650547 0.400958 0.0504201
377 1 0.699802 0.400705 -9.67825e-05
379 1 0.749155 0.400076 0.0506495
381 1 0.725175 0.424343 0.0248649
304 1 0.774492 0.375431 0.0253308
385 1 0.800313 0.398415 0.000358668
312 1 0.876151 0.374162 0.0239225
387 1 0.85155 0.399075 0.0498761
389 1 0.82488 0.424863 0.0261497
393 1 0.900021 0.400093 -0.0024332
397 1 0.923521 0.4255 0.0235338
320 1 0.975468 0.376151 0.0246551
395 1 0.949344 0.401055 0.0485121
322 1 -0.000145801 0.449592 0.0489421
324 1 0.0498832 0.450706 -0.000488169
328 1 0.0745258 0.474482 0.0241277
330 1 0.101255 0.450369 0.048651
332 1 0.151177 0.448649 -0.000214953
336 1 0.175168 0.475216 0.0252443
338 1 0.201062 0.449437 0.0484036
340 1 0.251119 0.449305 -0.000399775
344 1 0.275538 0.475256 0.0249643
346 1 0.300075 0.450435 0.0482769
348 1 0.350366 0.449661 7.71633e-05
352 1 0.375697 0.474829 0.0247015
354 1 0.40068 0.450193 0.0500669
356 1 0.4498 0.450124 -0.000261838
360 1 0.475195 0.474125 0.024702
362 1 0.499891 0.450391 0.0507018
364 1 0.549899 0.450129 0.000690629
368 1 0.575505 0.475468 0.0256237
370 1 0.599392 0.450786 0.0502871
372 1 0.650208 0.451655 4.26535e-05
376 1 0.674697 0.476154 0.0255695
378 1 0.699919 0.450199 0.0499027
380 1 0.750029 0.449537 0.000254142
384 1 0.775191 0.474319 0.025209
386 1 0.800484 0.450263 0.0507493
388 1 0.849487 0.44987 0.000268849
392 1 0.87387 0.473836 0.0235222
394 1 0.899637 0.449666 0.0491471
396 1 0.948946 0.449098 -0.00084286
400 1 0.975019 0.474199 0.0239181
401 1 -0.00128058 0.000512095 0.099301
404 1 0.049782 0.049446 0.101089
7 1 0.0747377 0.0247364 0.0754798
409 1 0.100032 0.000592146 0.0999067
15 1 0.175994 0.0245604 0.0734381
412 1 0.151484 0.0502655 0.099343
417 1 0.201202 -4.95263e-05 0.0989175
23 1 0.275356 0.0252957 0.0762812
420 1 0.251913 0.0505561 0.100441
425 1 0.299842 0.0007611 0.10146
428 1 0.349994 0.0499948 0.0998532
31 1 0.374047 0.0248942 0.0752629
433 1 0.40139 -0.000768644 0.0993244
436 1 0.450896 0.0498612 0.0996537
39 1 0.475243 0.025078 0.075688
441 1 0.499633 0.000284331 0.10004
47 1 0.575808 0.0237367 0.0742249
444 1 0.549557 0.0480414 0.100261
449 1 0.601545 -3.07601e-05 0.0996146
55 1 0.674851 0.0248823 0.0741638
452 1 0.649754 0.04985 0.100184
457 1 0.698752 0.000171791 0.0992816
460 1 0.750289 0.0492423 0.0997331
63 1 0.774063 0.0255039 0.0741288
465 1 0.798187 9.4689e-05 0.100745
71 1 0.874344 0.0253187 0.0736837
468 1 0.849775 0.0505499 0.100042
473 1 0.900151 0.000462848 0.0998225
79 1 0.973255 0.0252952 0.0745779
476 1 0.951175 0.0507444 0.0995213
6 1 0.0253601 0.0745097 0.0758838
481 1 0.000278893 0.0993616 0.0993928
489 1 0.0983954 0.0986883 0.100586
14 1 0.124492 0.0750744 0.0753617
22 1 0.225546 0.0756553 0.0745205
497 1 0.199429 0.100412 0.0999371
30 1 0.324589 0.0749234 0.0748868
505 1 0.300072 0.100677 0.100896
513 1 0.399735 0.100527 0.0988108
38 1 0.424987 0.0749997 0.0742552
46 1 0.525179 0.0736732 0.0756579
521 1 0.501283 0.0993524 0.0992021
54 1 0.624932 0.0757726 0.0746787
529 1 0.600606 0.0999741 0.100251
537 1 0.69922 0.10128 0.101031
62 1 0.724584 0.0749649 0.0761465
545 1 0.799288 0.0992955 0.0998215
70 1 0.82611 0.0756971 0.0748969
78 1 0.924823 0.074814 0.0746534
553 1 0.899007 0.100197 0.100329
86 1 0.0250662 0.175329 0.0749349
484 1 0.0501793 0.149994 0.100192
87 1 0.0745139 0.124702 0.0743254
94 1 0.12361 0.175169 0.0764903
95 1 0.173997 0.124667 0.0762742
492 1 0.149237 0.149732 0.102224
102 1 0.225073 0.173918 0.075451
103 1 0.275072 0.125535 0.0759799
500 1 0.250176 0.151075 0.100812
110 1 0.325345 0.1753 0.0751407
508 1 0.350113 0.150475 0.0996747
111 1 0.375132 0.125742 0.0743925
118 1 0.425132 0.1748 0.0742245
516 1 0.45103 0.149543 0.0990942
119 1 0.475522 0.124961 0.0739935
126 1 0.524559 0.174432 0.0748987
127 1 0.57585 0.125338 0.0759332
524 1 0.550681 0.150163 0.10076
134 1 0.625654 0.17543 0.0758172
135 1 0.67458 0.125425 0.0753234
532 1 0.65072 0.150546 0.101041
142 1 0.724486 0.175301 0.074882
540 1 0.748388 0.15058 0.100345
143 1 0.774854 0.124748 0.075065
150 1 0.824424 0.17519 0.0746874
151 1 0.87472 0.126388 0.0752405
548 1 0.849385 0.15105 0.0999421
158 1 0.924945 0.174846 0.0748244
159 1 0.973875 0.12462 0.0748138
556 1 0.949276 0.150236 0.0994782
561 1 -0.00129328 0.198427 0.100542
167 1 0.0746146 0.224884 0.0734407
569 1 0.0987532 0.199372 0.09937
175 1 0.173901 0.223985 0.0751581
577 1 0.198725 0.199801 0.0999189
183 1 0.275758 0.225251 0.0745562
585 1 0.299731 0.198921 0.0991937
191 1 0.375929 0.225799 0.0735087
593 1 0.400188 0.200892 0.0991901
199 1 0.474695 0.226014 0.0745594
601 1 0.500096 0.199514 0.101031
207 1 0.575183 0.224895 0.0740038
609 1 0.599866 0.200368 0.100593
215 1 0.675492 0.223591 0.0763427
617 1 0.700473 0.200527 0.0997272
223 1 0.774288 0.225765 0.0742402
625 1 0.799342 0.19987 0.0997977
231 1 0.876104 0.224583 0.0754928
633 1 0.899477 0.198715 0.0995182
239 1 0.974499 0.224065 0.0752092
166 1 0.0252546 0.275344 0.0746694
564 1 0.0479999 0.250195 0.0994585
641 1 -0.000521017 0.300993 0.100322
649 1 0.100239 0.299154 0.100191
174 1 0.123842 0.274246 0.0747419
572 1 0.148924 0.248799 0.100105
182 1 0.224985 0.27475 0.0750124
657 1 0.199399 0.299725 0.100219
580 1 0.250052 0.250227 0.0999412
190 1 0.32488 0.274903 0.0744741
588 1 0.35085 0.249027 0.0994999
665 1 0.299984 0.299773 0.099752
673 1 0.400465 0.299511 0.0996964
198 1 0.42456 0.274965 0.0744802
596 1 0.449068 0.250582 0.0997586
206 1 0.525098 0.275209 0.0747537
681 1 0.499995 0.298974 0.100933
604 1 0.550213 0.250952 0.0993641
214 1 0.6254 0.276007 0.074451
689 1 0.600106 0.300712 0.098792
612 1 0.64937 0.250626 0.100667
697 1 0.698727 0.300557 0.100211
222 1 0.724116 0.275338 0.0757117
620 1 0.749086 0.250758 0.0988009
705 1 0.800416 0.300902 0.09948
230 1 0.826098 0.275305 0.0741381
628 1 0.850484 0.250059 0.0992123
238 1 0.925775 0.273992 0.0757436
713 1 0.900084 0.299822 0.0998897
636 1 0.950733 0.250194 0.101586
644 1 0.0493639 0.350143 0.0990879
247 1 0.0751995 0.325701 0.0741307
255 1 0.175211 0.325116 0.0741819
652 1 0.150296 0.348433 0.0988333
263 1 0.276175 0.325282 0.0752675
660 1 0.250397 0.349344 0.100016
668 1 0.350484 0.349639 0.100232
271 1 0.374796 0.324265 0.0754647
676 1 0.451082 0.350325 0.100651
279 1 0.475334 0.324328 0.0749216
287 1 0.574418 0.326411 0.0745904
684 1 0.549984 0.351696 0.100064
295 1 0.674137 0.325626 0.0746952
692 1 0.650553 0.351597 0.0989105
700 1 0.748836 0.35056 0.100643
303 1 0.77418 0.325214 0.0755902
311 1 0.877053 0.325266 0.0740992
708 1 0.85134 0.350172 0.0995704
319 1 0.974282 0.326543 0.0756705
716 1 0.949879 0.351026 0.0996905
246 1 0.0239317 0.375453 0.0742604
721 1 -0.00011954 0.400249 0.0986817
327 1 0.0751558 0.424908 0.0747444
729 1 0.0990557 0.399551 0.0995173
254 1 0.124945 0.374769 0.0742931
335 1 0.175766 0.425797 0.0742255
262 1 0.226475 0.374695 0.0744396
737 1 0.199577 0.40038 0.0982631
343 1 0.276159 0.426235 0.0740967
270 1 0.325097 0.375583 0.0746316
745 1 0.299903 0.399667 0.0999527
351 1 0.375111 0.425507 0.0739243
753 1 0.400017 0.400386 0.100556
278 1 0.424707 0.375631 0.0757554
286 1 0.524426 0.375279 0.0760122
359 1 0.474861 0.425768 0.0746736
761 1 0.499676 0.400879 0.100416
367 1 0.574999 0.424927 0.074534
294 1 0.625467 0.377223 0.0750254
769 1 0.599783 0.400764 0.0990839
375 1 0.675497 0.424413 0.075368
777 1 0.700469 0.399267 0.099941
302 1 0.724559 0.375 0.0760059
383 1 0.774527 0.425592 0.0747229
785 1 0.801187 0.399946 0.0988917
310 1 0.826564 0.375573 0.0751849
391 1 0.874857 0.42601 0.074347
318 1 0.925643 0.37643 0.0737568
793 1 0.900237 0.401119 0.0989369
399 1 0.975302 0.426708 0.0735059
326 1 0.0237629 0.474967 0.0738088
724 1 0.0496288 0.450632 0.0990799
334 1 0.125956 0.474007 0.0738808
732 1 0.15057 0.44938 0.0989473
342 1 0.225912 0.474049 0.0741179
740 1 0.249813 0.448832 0.0995466
350 1 0.325107 0.475585 0.0753511
748 1 0.350212 0.450104 0.099023
358 1 0.424272 0.475416 0.0762239
756 1 0.450324 0.450633 0.100597
366 1 0.525798 0.475555 0.0755658
764 1 0.550352 0.451265 0.100201
374 1 0.624581 0.476049 0.0756721
772 1 0.649678 0.45132 0.100208
382 1 0.725568 0.475092 0.0750854
780 1 0.749514 0.449725 0.0991508
390 1 0.824284 0.475308 0.0748342
788 1 0.851316 0.449609 0.099449
398 1 0.924416 0.474966 0.0742273
796 1 0.950635 0.450775 0.0985547
402 1 -0.00029358 0.0507377 0.150574
403 1 0.050275 0.000421472 0.149847
405 1 0.024395 0.0252566 0.125544
407 1 0.0750774 0.0253689 0.174676
410 1 0.101148 0.0499231 0.149698
411 1 0.149762 0.000137305 0.149949
413 1 0.127212 0.0246574 0.125267
415 1 0.176783 0.0247577 0.175368
418 1 0.200409 0.0498394 0.14954
421 1 0.225751 0.0252943 0.124091
419 1 0.249506 -0.00119294 0.150186
423 1 0.274505 0.0231878 0.173799
426 1 0.299862 0.0497923 0.150433
427 1 0.350814 0.000615742 0.150589
429 1 0.32548 0.025596 0.12603
431 1 0.376137 0.0261552 0.175743
434 1 0.399948 0.0491347 0.149904
435 1 0.451788 -0.00138514 0.14922
437 1 0.425845 0.0253594 0.125862
439 1 0.47553 0.0251325 0.174646
442 1 0.499654 0.0510653 0.15078
445 1 0.524756 0.0253566 0.124384
443 1 0.549654 0.00044634 0.14919
447 1 0.575286 0.0247972 0.174624
450 1 0.601154 0.0490731 0.149416
453 1 0.626082 0.0250351 0.125369
451 1 0.649676 0.00147946 0.150019
455 1 0.674712 0.0247266 0.175739
458 1 0.699325 0.0506966 0.149877
459 1 0.748944 -0.000375066 0.150415
461 1 0.723599 0.0249262 0.125321
463 1 0.773991 0.0240504 0.175112
466 1 0.799881 0.0481552 0.148912
467 1 0.8499 -0.00100049 0.15008
469 1 0.824351 0.023553 0.125556
471 1 0.875649 0.0247955 0.175119
474 1 0.900215 0.0504389 0.149813
477 1 0.925583 0.0260748 0.124507
475 1 0.949457 0.00119825 0.149846
479 1 0.975035 0.0251357 0.175214
406 1 0.0242321 0.0751016 0.175475
483 1 0.0510785 0.0985012 0.150422
408 1 0.0743313 0.0742483 0.126004
414 1 0.125881 0.0748794 0.174152
416 1 0.175625 0.0743034 0.123745
491 1 0.150675 0.100029 0.149532
422 1 0.226386 0.0752466 0.174225
424 1 0.275471 0.0742503 0.125317
499 1 0.25069 0.100664 0.14865
430 1 0.326757 0.0738435 0.175152
507 1 0.35092 0.0992841 0.150961
432 1 0.375855 0.0760039 0.124283
438 1 0.424613 0.0749507 0.174531
515 1 0.450917 0.100036 0.148842
440 1 0.476207 0.075403 0.124526
446 1 0.525913 0.0748762 0.175227
448 1 0.576502 0.0740007 0.125411
523 1 0.550295 0.0995385 0.15166
454 1 0.624086 0.0747417 0.175026
456 1 0.674092 0.0760129 0.125542
531 1 0.648926 0.101029 0.15188
462 1 0.724744 0.0756313 0.174334
539 1 0.750194 0.100723 0.148211
464 1 0.775671 0.0739624 0.123895
470 1 0.824563 0.0733226 0.174542
472 1 0.874866 0.0750179 0.124146
547 1 0.849015 0.0995753 0.14921
478 1 0.924583 0.0758707 0.17588
480 1 0.973766 0.0752244 0.126047
555 1 0.948781 0.100316 0.151205
482 1 0.000779729 0.150484 0.149798
485 1 0.0246482 0.124441 0.125849
486 1 0.0250526 0.174424 0.173991
487 1 0.0743979 0.124099 0.174325
488 1 0.0748548 0.174923 0.123719
490 1 0.0989941 0.150407 0.15033
493 1 0.123687 0.124238 0.125981
494 1 0.123975 0.175124 0.175251
495 1 0.174384 0.126617 0.175615
496 1 0.173696 0.174951 0.125525
498 1 0.19948 0.150368 0.150024
501 1 0.224145 0.126179 0.125351
502 1 0.223858 0.17469 0.175326
503 1 0.276087 0.124391 0.173092
504 1 0.275242 0.176442 0.125211
506 1 0.300577 0.150546 0.149595
509 1 0.3246 0.125798 0.124315
510 1 0.326129 0.175375 0.174992
511 1 0.375582 0.124952 0.174502
512 1 0.375627 0.174555 0.125031
514 1 0.398689 0.149351 0.149059
517 1 0.425126 0.124305 0.123625
518 1 0.425242 0.175306 0.174215
519 1 0.476052 0.124152 0.17286
520 1 0.474714 0.174804 0.123943
522 1 0.50117 0.149334 0.149549
525 1 0.52505 0.124167 0.125586
526 1 0.526354 0.173975 0.174815
527 1 0.575553 0.124886 0.175912
528 1 0.574408 0.176477 0.124677
530 1 0.59902 0.150689 0.149078
533 1 0.624559 0.125518 0.125274
534 1 0.625296 0.174003 0.174089
535 1 0.673512 0.125176 0.175033
536 1 0.675348 0.175449 0.124363
538 1 0.699417 0.150427 0.150348
541 1 0.724928 0.126381 0.12474
542 1 0.724772 0.175699 0.174266
543 1 0.775529 0.1242 0.176266
544 1 0.774736 0.173774 0.125035
546 1 0.799809 0.150697 0.150151
549 1 0.824196 0.124597 0.125127
550 1 0.825791 0.174512 0.175522
551 1 0.873621 0.125534 0.174244
552 1 0.874636 0.174715 0.12412
554 1 0.899982 0.149483 0.149925
557 1 0.924247 0.12494 0.124266
558 1 0.924352 0.17521 0.175468
559 1 0.973793 0.124979 0.175861
560 1 0.974165 0.174353 0.124961
563 1 0.0483765 0.198761 0.148165
565 1 0.0234913 0.224219 0.124181
567 1 0.0746029 0.223252 0.173974
571 1 0.1494 0.198788 0.150256
573 1 0.125029 0.223022 0.12513
575 1 0.175055 0.223491 0.174357
581 1 0.224738 0.226278 0.126435
579 1 0.249115 0.200994 0.150429
583 1 0.275773 0.225884 0.17496
587 1 0.350154 0.200251 0.149313
589 1 0.323731 0.225022 0.124277
591 1 0.37423 0.224958 0.174402
595 1 0.449938 0.199415 0.148669
597 1 0.424401 0.224998 0.125585
599 1 0.474364 0.223817 0.174208
605 1 0.52636 0.225987 0.124812
603 1 0.55032 0.200608 0.14879
607 1 0.574566 0.224771 0.175092
613 1 0.624797 0.224686 0.125198
611 1 0.650775 0.19997 0.150264
615 1 0.67508 0.223505 0.176146
619 1 0.750112 0.199784 0.150014
621 1 0.726107 0.22545 0.123655
623 1 0.7743 0.225113 0.17458
627 1 0.850804 0.19954 0.149182
629 1 0.824386 0.225011 0.124652
631 1 0.874232 0.224245 0.174958
637 1 0.925045 0.224428 0.124192
635 1 0.949369 0.200643 0.149049
639 1 0.974741 0.225158 0.174303
562 1 -0.000599707 0.250276 0.149127
566 1 0.0250297 0.274817 0.174827
643 1 0.0500275 0.300456 0.15033
568 1 0.0748748 0.275033 0.124569
570 1 0.101245 0.250107 0.149067
574 1 0.125123 0.275377 0.174802
576 1 0.173749 0.274697 0.12477
651 1 0.150497 0.299206 0.150064
578 1 0.200224 0.251521 0.150313
582 1 0.225273 0.274934 0.174841
584 1 0.274519 0.275299 0.124112
659 1 0.250492 0.301129 0.149333
586 1 0.299418 0.250614 0.150133
590 1 0.324322 0.275027 0.175119
667 1 0.349254 0.299896 0.150166
592 1 0.375132 0.274381 0.125685
594 1 0.398878 0.249655 0.150034
598 1 0.423999 0.274878 0.175666
675 1 0.449226 0.299873 0.150998
600 1 0.474918 0.274118 0.126258
602 1 0.500058 0.249746 0.150507
606 1 0.525468 0.27394 0.175532
608 1 0.575301 0.276254 0.123965
683 1 0.550651 0.300605 0.150065
610 1 0.600028 0.250701 0.14973
614 1 0.624502 0.275265 0.174037
616 1 0.675146 0.27489 0.125751
618 1 0.700421 0.251082 0.150024
691 1 0.649945 0.301704 0.149796
622 1 0.724124 0.275843 0.174532
699 1 0.750837 0.299466 0.150643
624 1 0.774402 0.275164 0.124575
626 1 0.799761 0.250301 0.149306
630 1 0.824922 0.273636 0.174149
632 1 0.874805 0.274073 0.124821
707 1 0.849238 0.298692 0.149287
634 1 0.899759 0.249681 0.149689
638 1 0.925797 0.274814 0.175006
640 1 0.975781 0.275041 0.124305
715 1 0.949542 0.299973 0.149944
642 1 -0.000518402 0.350241 0.149593
645 1 0.0249108 0.325237 0.126025
647 1 0.0756491 0.32481 0.174207
650 1 0.10051 0.34942 0.149203
653 1 0.125633 0.324201 0.123712
655 1 0.175273 0.324321 0.175009
658 1 0.200711 0.348383 0.149124
661 1 0.225103 0.324159 0.124988
663 1 0.274121 0.324893 0.176997
666 1 0.300138 0.349291 0.150789
669 1 0.324247 0.325598 0.125171
671 1 0.374985 0.324904 0.1757
674 1 0.399383 0.34935 0.151441
677 1 0.423897 0.325016 0.125929
679 1 0.474407 0.323412 0.175297
682 1 0.498654 0.349057 0.151123
685 1 0.524903 0.326231 0.125067
687 1 0.574501 0.325745 0.175416
690 1 0.600028 0.350417 0.150125
693 1 0.625562 0.326319 0.124482
695 1 0.673613 0.324928 0.175528
698 1 0.699406 0.349881 0.151298
701 1 0.725772 0.324823 0.125312
703 1 0.776176 0.323828 0.175403
706 1 0.799597 0.349169 0.150607
709 1 0.824917 0.325779 0.125449
711 1 0.875589 0.324873 0.174333
714 1 0.900862 0.35083 0.149897
717 1 0.924438 0.325383 0.124083
719 1 0.975193 0.324786 0.173695
646 1 0.0252869 0.375227 0.173978
723 1 0.0505577 0.400184 0.15145
725 1 0.0259424 0.42484 0.125182
648 1 0.0749847 0.374851 0.124507
727 1 0.0758188 0.424715 0.175211
654 1 0.127123 0.374463 0.174402
656 1 0.175281 0.373999 0.124361
731 1 0.151643 0.399045 0.149531
733 1 0.125318 0.425557 0.124257
735 1 0.176583 0.424693 0.173757
662 1 0.224965 0.374723 0.174332
741 1 0.224962 0.425024 0.123413
664 1 0.274815 0.375557 0.124247
739 1 0.250013 0.400083 0.150797
743 1 0.27517 0.424172 0.176028
670 1 0.325091 0.374561 0.176174
747 1 0.349267 0.4006 0.150287
749 1 0.325247 0.424746 0.124362
672 1 0.374456 0.374579 0.12483
751 1 0.376315 0.424323 0.175274
678 1 0.424675 0.373886 0.175853
755 1 0.449701 0.400001 0.15003
757 1 0.423533 0.425544 0.125079
680 1 0.474217 0.37601 0.125684
686 1 0.525661 0.37525 0.174724
759 1 0.4738 0.425181 0.17581
765 1 0.525031 0.426643 0.125305
688 1 0.575374 0.375593 0.123563
763 1 0.550594 0.401013 0.149398
767 1 0.575331 0.425842 0.174688
694 1 0.62531 0.374202 0.173775
773 1 0.625314 0.424827 0.125153
696 1 0.675711 0.374927 0.123889
771 1 0.651499 0.399749 0.148984
775 1 0.675897 0.424899 0.173767
702 1 0.724946 0.375272 0.176125
779 1 0.749518 0.400476 0.149797
781 1 0.725622 0.424233 0.123701
704 1 0.774041 0.375019 0.125562
783 1 0.775494 0.42532 0.175699
710 1 0.82584 0.374684 0.176144
712 1 0.876109 0.375239 0.123519
787 1 0.850295 0.400285 0.14917
789 1 0.825364 0.425656 0.124187
791 1 0.87559 0.425203 0.175948
718 1 0.92496 0.375291 0.175198
797 1 0.924995 0.425846 0.124498
720 1 0.974925 0.375166 0.124904
795 1 0.951121 0.400345 0.149897
799 1 0.975799 0.424617 0.175007
722 1 -0.000997021 0.449416 0.149052
726 1 0.0229036 0.473846 0.174425
728 1 0.0739988 0.474402 0.125393
730 1 0.0996267 0.449498 0.149257
734 1 0.124116 0.474866 0.173713
736 1 0.174167 0.474905 0.124819
738 1 0.200732 0.45104 0.149303
742 1 0.225231 0.475416 0.175366
744 1 0.274684 0.4746 0.124704
746 1 0.300888 0.448386 0.149701
750 1 0.325276 0.475115 0.173922
752 1 0.374613 0.475195 0.125503
754 1 0.400617 0.450903 0.150563
758 1 0.425681 0.476367 0.174993
760 1 0.475361 0.475161 0.124754
762 1 0.499115 0.451413 0.150718
766 1 0.525416 0.47579 0.173971
768 1 0.576318 0.474609 0.125218
770 1 0.601547 0.450164 0.150112
774 1 0.625733 0.475286 0.174378
776 1 0.675241 0.47484 0.125397
778 1 0.701268 0.449874 0.149721
782 1 0.724999 0.475446 0.175343
784 1 0.775666 0.475671 0.125429
786 1 0.800592 0.450115 0.150703
790 1 0.825391 0.475932 0.175758
792 1 0.874493 0.474937 0.12572
794 1 0.899998 0.450209 0.149932
798 1 0.925388 0.476597 0.174024
800 1 0.975072 0.475055 0.123885
801 1 0.00068926 0.000196361 0.199782
804 1 0.0507207 0.0499369 0.199632
805 1 0.0255001 0.0251122 0.225367
809 1 0.100873 0.00058636 0.200095
812 1 0.150836 0.0507142 0.199711
813 1 0.125007 0.0246604 0.22611
817 1 0.199394 5.50746e-05 0.19898
821 1 0.225287 0.0239779 0.224748
820 1 0.248861 0.0479471 0.199114
825 1 0.300733 3.36484e-05 0.199321
828 1 0.351016 0.049361 0.19969
829 1 0.325052 0.0257376 0.225165
833 1 0.400326 -0.000973604 0.200132
836 1 0.451205 0.0498028 0.199912
837 1 0.425183 0.0246859 0.223953
841 1 0.501095 -0.000788367 0.199308
845 1 0.526033 0.0242178 0.223687
844 1 0.551154 0.0502455 0.200382
849 1 0.599855 0.000159106 0.201212
853 1 0.625111 0.025173 0.225097
852 1 0.649448 0.0503839 0.201452
857 1 0.699189 -0.000470487 0.200876
860 1 0.748858 0.0494313 0.199537
861 1 0.72374 0.0238133 0.225428
865 1 0.798568 -0.00197042 0.199697
868 1 0.84957 0.0494069 0.199511
869 1 0.82454 0.0250086 0.2245
873 1 0.899118 0.000145544 0.20081
877 1 0.924483 0.0247712 0.226505
876 1 0.949285 0.0498971 0.201088
881 1 -0.000560752 0.10082 0.201469
808 1 0.0752118 0.0744468 0.225372
889 1 0.100455 0.0993282 0.201704
816 1 0.175827 0.0735912 0.225654
897 1 0.200264 0.0993279 0.199907
824 1 0.275832 0.0749411 0.224011
905 1 0.300098 0.0993351 0.197162
832 1 0.374571 0.0748612 0.224684
913 1 0.400477 0.0992497 0.199612
840 1 0.475642 0.0743642 0.224329
921 1 0.499817 0.0999817 0.199709
848 1 0.574669 0.0748322 0.226018
929 1 0.600791 0.0997942 0.201289
856 1 0.677118 0.0759816 0.225249
937 1 0.6999 0.100072 0.19951
864 1 0.773618 0.074867 0.224897
945 1 0.799269 0.0984833 0.200398
872 1 0.873417 0.0739913 0.22583
953 1 0.898469 0.0999361 0.201587
880 1 0.976024 0.0754086 0.225256
884 1 0.0500641 0.14979 0.200672
885 1 0.0249128 0.125714 0.226698
888 1 0.0756585 0.175281 0.225564
892 1 0.149238 0.1497 0.199453
893 1 0.125609 0.125173 0.225985
896 1 0.173782 0.17492 0.225403
901 1 0.226013 0.123669 0.225367
900 1 0.251748 0.148513 0.199652
904 1 0.275409 0.176113 0.224134
908 1 0.350475 0.149905 0.200019
909 1 0.325342 0.125276 0.223536
912 1 0.37547 0.175707 0.223693
916 1 0.449882 0.149606 0.198646
917 1 0.424483 0.124828 0.224426
920 1 0.476117 0.175375 0.224925
925 1 0.524391 0.124902 0.224283
924 1 0.550345 0.148564 0.200189
928 1 0.575189 0.173582 0.225618
933 1 0.626359 0.123679 0.225147
932 1 0.6487 0.150071 0.200914
936 1 0.67446 0.175096 0.225338
940 1 0.750051 0.149143 0.199308
941 1 0.725206 0.124645 0.224233
944 1 0.774571 0.174922 0.225634
948 1 0.849898 0.150719 0.200344
949 1 0.824336 0.124793 0.224142
952 1 0.87423 0.174794 0.224895