ITEM: TIMESTEP
6000
ITEM: NUMBER OF ATOMS
4800
ITEM: BOX BOUNDS pp pp pp
0.0000000000000000e+00 5.4310000000000002e+01
0.0000000000000000e+00 5.4310000000000002e+01
0.0000000000000000e+00 3.2585999999999999e+01
ITEM: ATOMS id type xs ys zs
3 1 0.0476696 0.00142772 0.0797255
5 1 0.024093 0.0271482 0.0369582
10 1 0.099067 0.0510098 0.0758665
11 1 0.14986 0.00156452 0.078586
13 1 0.124077 0.024748 0.033879
18 1 0.199968 0.0506487 0.078952
21 1 0.225045 0.0250716 0.0364942
19 1 0.248647 -0.00101991 0.0763437
26 1 0.298785 0.0503605 0.0781658
29 1 0.3236 0.0234649 0.0385207
34 1 0.398139 0.0477926 0.0846651
37 1 0.42402 0.022159 0.042996
35 1 0.44671 -0.0033968 0.0833202
41 1 0.000476848 0.101973 -0.0047637
43 1 0.0489967 0.101471 0.0760741
8 1 0.0728491 0.0757404 0.0364727
51 1 0.148676 0.100712 0.0736589
16 1 0.175269 0.0757878 0.0349302
24 1 0.27449 0.0754155 0.037552
59 1 0.249407 0.100742 0.0773257
32 1 0.372101 0.0734859 0.0451358
67 1 0.347055 0.0998914 0.0849081
73 1 0.397934 0.0977469 0.00414859
40 1 0.473531 0.0722061 0.0466124
75 1 0.44895 0.0977593 0.0879669
42 1 -0.00109238 0.152983 0.0814297
44 1 0.049059 0.150891 -0.00308948
45 1 0.0241637 0.127347 0.0391876
50 1 0.0988503 0.152381 0.0788207
53 1 0.122754 0.127619 0.038069
58 1 0.198959 0.149814 0.0778907
61 1 0.224411 0.126593 0.0352855
66 1 0.29876 0.152211 0.0820156
69 1 0.322925 0.126731 0.0405605
74 1 0.39785 0.147917 0.0811179
77 1 0.423789 0.121565 0.0465426
2442 1 0.49923 0.148564 0.0847056
81 1 0.00136284 0.202099 0.00270268
83 1 0.0487489 0.201003 0.0809569
48 1 0.0741809 0.176899 0.0399144
89 1 0.100093 0.202234 0.00122404
91 1 0.147473 0.201479 0.0800284
56 1 0.173861 0.175996 0.0370651
97 1 0.199438 0.201146 -0.00373811
64 1 0.273361 0.176732 0.0408506
99 1 0.247276 0.201321 0.077183
72 1 0.372579 0.174615 0.0386812
107 1 0.350987 0.200811 0.0824341
113 1 0.399306 0.198913 0.0013699
80 1 0.472849 0.17293 0.0453197
115 1 0.449628 0.199175 0.0863282
84 1 0.0495165 0.253011 0.00508132
85 1 0.02318 0.229079 0.0429067
90 1 0.0993281 0.252992 0.0815286
92 1 0.15017 0.254255 0.00319707
93 1 0.124617 0.228373 0.0418655
96 1 0.175807 0.279444 0.0417038
98 1 0.19873 0.252502 0.0837354
101 1 0.222539 0.227505 0.0364352
104 1 0.275148 0.275615 0.0368221
106 1 0.299611 0.251426 0.082303
109 1 0.323449 0.22609 0.0423518
112 1 0.37503 0.273351 0.0454993
114 1 0.399703 0.24856 0.0858871
117 1 0.425049 0.223759 0.0448401
116 1 0.448475 0.249009 0.00235145
120 1 0.474816 0.273578 0.0446869
121 1 -0.000413823 0.302358 0.00531723
125 1 0.0246942 0.324663 0.0477861
88 1 0.0749027 0.27902 0.0437382
129 1 0.0998271 0.302352 0.00176457
131 1 0.150784 0.304485 0.0844379
133 1 0.125781 0.32898 0.0425823
137 1 0.201499 0.303231 0.00266036
139 1 0.251164 0.301155 0.0803321
141 1 0.227268 0.328959 0.0399443
145 1 0.300476 0.300203 -0.00368171
149 1 0.327697 0.323887 0.0400844
147 1 0.350169 0.300369 0.0872268
153 1 0.398606 0.297356 0.00357883
157 1 0.423397 0.324226 0.0415353
155 1 0.448973 0.299596 0.0842937
122 1 3.21911e-05 0.351737 0.0879047
124 1 0.0500432 0.350278 0.0071019
128 1 0.0741581 0.378342 0.0438852
130 1 0.10199 0.355292 0.0853374
132 1 0.152888 0.351477 0.00126435
136 1 0.178631 0.378646 0.0426447
138 1 0.200827 0.352708 0.0847332
144 1 0.277484 0.376362 0.039803
146 1 0.301639 0.349205 0.0791565
148 1 0.352674 0.349566 -0.000663319
152 1 0.376394 0.376283 0.0432571
154 1 0.39986 0.349383 0.0806782
156 1 0.448401 0.348726 0.00233883
160 1 0.474684 0.373458 0.0424533
2522 1 0.498936 0.349041 0.0864218
163 1 0.0490323 0.401939 0.0859305
165 1 0.0266385 0.42962 0.0465605
169 1 0.0998332 0.401507 0.00288552
171 1 0.153884 0.404396 0.0846918
173 1 0.125659 0.4262 0.0465989
177 1 0.203632 0.40178 -0.00173188
179 1 0.251796 0.399464 0.0835829
181 1 0.227528 0.424566 0.044337
189 1 0.327509 0.424584 0.0411597
187 1 0.351424 0.400547 0.0859388
193 1 0.40028 0.401149 -0.00103316
197 1 0.427932 0.425868 0.0426663
195 1 0.452409 0.400643 0.0829765
164 1 0.0515376 0.452109 0.00274843
1203 1 0.0526274 0.50358 0.0850709
168 1 0.0774317 0.476747 0.0454771
170 1 0.100042 0.450074 0.0864875
172 1 0.15246 0.450283 0.00563757
176 1 0.17889 0.476525 0.0423383
178 1 0.20158 0.450825 0.0840237
180 1 0.251708 0.449754 -0.000234431
184 1 0.275028 0.47457 0.0413768
186 1 0.30226 0.449089 0.0845365
188 1 0.351349 0.450982 -0.00214196
192 1 0.377142 0.474019 0.0412094
1227 1 0.352814 0.501091 0.0846447
194 1 0.402192 0.449631 0.0828875
1233 1 0.403312 0.498885 -0.0033892
196 1 0.453401 0.447873 0.000759367
200 1 0.476004 0.474072 0.0413689
2562 1 0.499699 0.449569 0.084649
1235 1 0.452253 0.499877 0.0822125
3601 1 0.502503 0.499572 0.000113219
204 1 0.0510196 0.0519386 0.160898
7 1 0.0751492 0.0260894 0.119016
209 1 0.0986666 0.000997444 0.163438
212 1 0.148234 0.0505587 0.162082
15 1 0.17471 0.0251936 0.118303
217 1 0.19823 -0.00143079 0.157813
23 1 0.274306 0.0251274 0.118988
220 1 0.244889 0.0488939 0.159744
225 1 0.298505 -0.00189182 0.157164
31 1 0.374049 0.0208401 0.126069
228 1 0.348387 0.0480289 0.164191
39 1 0.473897 0.0210542 0.123663
236 1 0.449036 0.0460514 0.164663
2601 1 0.498982 -0.00404383 0.162511
6 1 0.0258346 0.077156 0.121019
241 1 -5.28975e-05 0.101312 0.160866
249 1 0.0995339 0.102017 0.162124
14 1 0.124723 0.0754524 0.118821
257 1 0.197785 0.101239 0.15464
22 1 0.223984 0.0755833 0.118082
30 1 0.322234 0.0731097 0.121728
265 1 0.29643 0.100218 0.161503
38 1 0.424296 0.0721328 0.126125
273 1 0.399273 0.0983994 0.166218
2641 1 0.499316 0.0967528 0.166549
244 1 0.0484887 0.152504 0.162297
47 1 0.0730625 0.127903 0.119783
252 1 0.150671 0.15102 0.160512
55 1 0.171991 0.124782 0.117472
63 1 0.272704 0.125819 0.120836
260 1 0.250099 0.150981 0.160599
71 1 0.373733 0.124401 0.12289
268 1 0.349513 0.150883 0.163608
79 1 0.47557 0.12406 0.127717
276 1 0.449361 0.147403 0.167739
46 1 0.0222475 0.178372 0.122391
281 1 0.000968623 0.202002 0.169291
289 1 0.0986068 0.201691 0.162754
54 1 0.123473 0.175526 0.122072
297 1 0.198566 0.201186 0.162325
62 1 0.22429 0.175071 0.120051
70 1 0.323467 0.177386 0.124681
305 1 0.297238 0.199873 0.166196
78 1 0.423858 0.172335 0.127994
313 1 0.400244 0.197801 0.167316
2681 1 0.500929 0.196289 0.170148
82 1 -0.000757446 0.254401 0.0916086
284 1 0.0500718 0.252685 0.166518
87 1 0.0732975 0.227591 0.121771
94 1 0.125136 0.277274 0.122508
292 1 0.149311 0.2521 0.164232
95 1 0.173433 0.225954 0.121433
102 1 0.224561 0.278343 0.126334
103 1 0.270801 0.224767 0.120867
300 1 0.247761 0.250321 0.166155
110 1 0.323761 0.276052 0.127294
111 1 0.374884 0.223444 0.127417
308 1 0.350357 0.248714 0.166453
118 1 0.424853 0.27292 0.124842
119 1 0.475562 0.222245 0.129932
316 1 0.448839 0.246905 0.167066
123 1 0.0516455 0.302183 0.0881487
86 1 0.0254386 0.279222 0.128791
321 1 0.000404129 0.30271 0.171725
127 1 0.0767863 0.330418 0.125387
329 1 0.101714 0.303453 0.167963
135 1 0.176513 0.327422 0.126069
337 1 0.200582 0.303573 0.167119
143 1 0.274907 0.327503 0.122466
345 1 0.298144 0.30255 0.164485
151 1 0.375374 0.325181 0.125533
353 1 0.399905 0.299248 0.165073
159 1 0.475182 0.322824 0.126755
126 1 0.0249142 0.377849 0.131059
324 1 0.0502532 0.352493 0.170122
134 1 0.128434 0.379657 0.127042
332 1 0.152333 0.352269 0.170107
142 1 0.22439 0.377291 0.125633
340 1 0.250006 0.352247 0.164876
150 1 0.324387 0.374329 0.123527
348 1 0.350065 0.350963 0.166505
158 1 0.425325 0.373766 0.123135
356 1 0.451377 0.347832 0.165197
361 1 0.000617486 0.40257 0.173983
167 1 0.0742008 0.426847 0.127106
369 1 0.0991886 0.4024 0.170002
175 1 0.177254 0.428102 0.1288
377 1 0.199235 0.401841 0.171916
183 1 0.276451 0.425599 0.125966
385 1 0.302755 0.401252 0.165154
191 1 0.375783 0.42542 0.127098
393 1 0.40274 0.400332 0.167301
199 1 0.476323 0.423046 0.125884
166 1 0.0277899 0.477307 0.128735
364 1 0.0526941 0.452245 0.169219
174 1 0.126242 0.475246 0.127189
372 1 0.151211 0.453113 0.171116
1417 1 0.199515 0.501614 0.172973
182 1 0.225768 0.477768 0.125716
380 1 0.250318 0.452165 0.166549
190 1 0.327416 0.474578 0.128206
388 1 0.351943 0.450575 0.168923
198 1 0.429278 0.473831 0.124116
1433 1 0.403182 0.498044 0.169217
396 1 0.450903 0.447803 0.166192
202 1 0.00223804 0.0526464 0.245931
203 1 0.0485573 0.00309684 0.244624
205 1 0.0252809 0.0252323 0.202109
210 1 0.0991921 0.052767 0.248131
211 1 0.14979 0.00297932 0.241804
213 1 0.122889 0.027108 0.20377
218 1 0.199023 0.051869 0.244024
219 1 0.248889 0.00113966 0.243429
221 1 0.222094 0.0246205 0.201142
226 1 0.297601 0.0511309 0.242709
229 1 0.32219 0.0252584 0.203682
234 1 0.399815 0.0476852 0.24838
237 1 0.42544 0.0212099 0.20801
2602 1 0.500596 0.0459558 0.246146
243 1 0.0485207 0.102802 0.243183
208 1 0.0756709 0.0758788 0.20425
251 1 0.149122 0.101823 0.245401
216 1 0.17474 0.0787317 0.199634
224 1 0.27142 0.0737992 0.200557
259 1 0.248196 0.100433 0.24232
232 1 0.375033 0.0722197 0.206648
267 1 0.346962 0.0996285 0.246971
240 1 0.473832 0.0715325 0.206227
275 1 0.448992 0.0963187 0.247448
242 1 0.00084876 0.153783 0.248557
245 1 0.0231737 0.128494 0.203346
250 1 0.0988813 0.153261 0.246918
253 1 0.124558 0.12897 0.205482
258 1 0.200254 0.15202 0.246921
261 1 0.222299 0.126233 0.202152
266 1 0.299612 0.150581 0.244457
269 1 0.322665 0.124301 0.204426
274 1 0.397686 0.146753 0.247594
277 1 0.425052 0.122692 0.206965
2642 1 0.500194 0.146177 0.253076
283 1 0.0519463 0.202323 0.246011
248 1 0.0750576 0.177606 0.203583
291 1 0.148499 0.200886 0.24425
256 1 0.175078 0.174576 0.202258
264 1 0.27298 0.174745 0.204865
299 1 0.249744 0.200683 0.246968
272 1 0.37417 0.174136 0.2086
307 1 0.34718 0.199449 0.24861
317 1 0.425135 0.222677 0.212311
280 1 0.474363 0.171888 0.211181
315 1 0.449382 0.196938 0.24999
282 1 0.000557401 0.253408 0.252016
285 1 0.0246926 0.22851 0.207918
290 1 0.100763 0.253449 0.246674
293 1 0.123153 0.228814 0.204183
296 1 0.173947 0.277286 0.206845
298 1 0.199768 0.252428 0.247769
301 1 0.222673 0.224962 0.208887
304 1 0.273426 0.275393 0.206503
306 1 0.299742 0.250489 0.246923
309 1 0.323026 0.226378 0.204931
312 1 0.374627 0.27395 0.208427
314 1 0.398507 0.248069 0.252008
320 1 0.474934 0.273093 0.209132
2682 1 0.498342 0.247504 0.250464
323 1 0.0512533 0.301454 0.253889
325 1 0.0265262 0.327646 0.21528
288 1 0.0746056 0.27886 0.207569
331 1 0.151186 0.304545 0.253528
333 1 0.12566 0.329308 0.211126
339 1 0.250392 0.301299 0.247868
341 1 0.226015 0.327238 0.206258
349 1 0.32477 0.326406 0.208595
347 1 0.35098 0.300334 0.24769
357 1 0.426849 0.324037 0.208186
355 1 0.448855 0.297628 0.25053
322 1 0.000859284 0.352377 0.255395
328 1 0.0744557 0.37941 0.213312
330 1 0.100566 0.353717 0.254435
336 1 0.176077 0.376718 0.216334
338 1 0.203804 0.352571 0.249357
344 1 0.276755 0.377929 0.206736
346 1 0.300426 0.352008 0.249581
352 1 0.377377 0.37533 0.208808
354 1 0.401568 0.350762 0.250463
360 1 0.478001 0.373814 0.206045
2722 1 0.501269 0.347149 0.247136
363 1 0.0490909 0.405051 0.257675
365 1 0.0247932 0.428206 0.214289
371 1 0.151627 0.403478 0.25594
373 1 0.126356 0.427166 0.211639
379 1 0.251656 0.40235 0.247157
381 1 0.225351 0.427611 0.211245
389 1 0.326759 0.426575 0.209321
387 1 0.352141 0.401203 0.249593
397 1 0.42729 0.424567 0.210529
395 1 0.453295 0.399362 0.249184
368 1 0.0780418 0.476639 0.209541
370 1 0.101917 0.453833 0.253298
376 1 0.175166 0.475416 0.215532
378 1 0.202009 0.45201 0.254934
384 1 0.275635 0.476895 0.207434
1419 1 0.251493 0.499811 0.251005
386 1 0.302288 0.452333 0.249662
392 1 0.376708 0.475188 0.210577
1427 1 0.352126 0.500939 0.250996
394 1 0.400666 0.450151 0.250576
400 1 0.475246 0.474244 0.209274
1435 1 0.451141 0.497716 0.25517
401 1 0.000178297 0.00174868 0.329014
404 1 0.0497769 0.0534305 0.331269
207 1 0.0728124 0.0271694 0.286951
409 1 0.0976559 0.00169578 0.325226
412 1 0.149854 0.050784 0.330963
215 1 0.174296 0.0283138 0.284969
417 1 0.19795 0.00113455 0.327335
223 1 0.275623 0.0248952 0.283827
420 1 0.24837 0.0505224 0.323468
231 1 0.372378 0.0242942 0.28758
428 1 0.347263 0.0493614 0.327238
239 1 0.475341 0.0218038 0.29134
436 1 0.448994 0.0465154 0.333446
206 1 0.0255512 0.0772457 0.288509
449 1 0.099659 0.101583 0.330565
214 1 0.125067 0.0768488 0.289061
457 1 0.199449 0.101089 0.328934
222 1 0.222763 0.0767799 0.286065
230 1 0.323244 0.0754913 0.287206
465 1 0.297748 0.100565 0.327877
238 1 0.424823 0.0710541 0.290124
473 1 0.399475 0.0986112 0.329936
2841 1 0.498831 0.0967843 0.333796
444 1 0.0512161 0.151881 0.326822
247 1 0.0749462 0.125911 0.286243
452 1 0.149802 0.154028 0.329108
255 1 0.173159 0.128169 0.28884
263 1 0.274019 0.125959 0.283276
460 1 0.248456 0.149983 0.326376
271 1 0.373278 0.123659 0.292324
468 1 0.347309 0.149093 0.329983
279 1 0.474172 0.120179 0.290886
476 1 0.449153 0.14596 0.328492
246 1 0.0261337 0.179496 0.290821
481 1 0.0012304 0.203025 0.336004
489 1 0.099231 0.204175 0.33167
254 1 0.123873 0.178537 0.287693
497 1 0.200873 0.204116 0.330947
262 1 0.224807 0.177928 0.29183
270 1 0.322423 0.174607 0.291512
505 1 0.297984 0.200626 0.332028
278 1 0.423667 0.17189 0.288366
513 1 0.400054 0.197304 0.333288
319 1 0.474009 0.222346 0.293394
2881 1 0.499559 0.198957 0.336523
286 1 0.0262621 0.278822 0.295385
484 1 0.050787 0.253242 0.330458
287 1 0.0755896 0.228662 0.287253
492 1 0.150277 0.252331 0.327985
295 1 0.175933 0.226678 0.284815
302 1 0.22344 0.278468 0.287048
500 1 0.250231 0.251938 0.32756
303 1 0.275922 0.225841 0.288119
310 1 0.324819 0.274478 0.288227
311 1 0.374063 0.22208 0.29138
508 1 0.348337 0.248939 0.329095
318 1 0.4251 0.271826 0.292605
516 1 0.450028 0.249338 0.335975
327 1 0.0747839 0.32692 0.294311
529 1 0.0996676 0.302043 0.334305
294 1 0.124936 0.278191 0.289191
335 1 0.176612 0.328474 0.292706
537 1 0.20097 0.302163 0.332616
343 1 0.274923 0.327823 0.290626
545 1 0.299879 0.300362 0.329539
351 1 0.375124 0.326841 0.291714
553 1 0.39923 0.298805 0.33182
359 1 0.475212 0.321868 0.290106
2921 1 0.4991 0.297038 0.33396
326 1 0.0248731 0.377355 0.295472
524 1 0.0507328 0.352526 0.336085
334 1 0.125449 0.379168 0.29538
532 1 0.149967 0.35283 0.335312
342 1 0.226819 0.378578 0.292953
540 1 0.251134 0.35273 0.333902
350 1 0.326518 0.375732 0.291903
548 1 0.3503 0.351211 0.334735
358 1 0.426368 0.373801 0.293388
556 1 0.450996 0.348073 0.332398
561 1 0.0017846 0.403111 0.338617
367 1 0.0772099 0.429267 0.297766
569 1 0.101282 0.402359 0.338764
375 1 0.176452 0.429414 0.296334
577 1 0.200861 0.403107 0.337405
383 1 0.276011 0.427284 0.289546
585 1 0.302282 0.401616 0.331049
391 1 0.376936 0.425442 0.293592
593 1 0.400526 0.398907 0.334447
399 1 0.478179 0.422652 0.292921
366 1 0.0255159 0.478209 0.29378
564 1 0.0512715 0.453977 0.339237
374 1 0.127753 0.478649 0.297617
572 1 0.151747 0.45106 0.33928
382 1 0.227744 0.47586 0.295681
580 1 0.250549 0.449403 0.33355
390 1 0.325681 0.475525 0.292389
1625 1 0.301991 0.501638 0.335895
588 1 0.35103 0.450954 0.336148
398 1 0.424137 0.473448 0.295811
596 1 0.451131 0.447854 0.334308
403 1 0.0515719 0.00379225 0.410088
405 1 0.0254576 0.0265883 0.368417
410 1 0.100117 0.0516995 0.413698
411 1 0.149423 0.00149444 0.410367
413 1 0.123555 0.026333 0.368804
418 1 0.198246 0.0504719 0.410235
421 1 0.223354 0.0252397 0.369091
415 1 0.174338 0.0259255 0.453443
423 1 0.274312 0.0263058 0.45556
426 1 0.29804 0.0513857 0.409707
429 1 0.322783 0.0252469 0.369478
434 1 0.399582 0.0490382 0.412871
437 1 0.42407 0.0218526 0.373528
2802 1 0.498976 0.0465771 0.416718
443 1 0.0491083 0.10117 0.408514
408 1 0.0758402 0.0757531 0.372948
451 1 0.14872 0.102675 0.409049
416 1 0.174488 0.0779274 0.371975
424 1 0.272323 0.0765056 0.369509
459 1 0.247807 0.0996339 0.412644
432 1 0.374348 0.0722519 0.369463
467 1 0.347948 0.0992544 0.407529
440 1 0.473626 0.071861 0.375213
475 1 0.450156 0.0983819 0.414262
442 1 0.0019683 0.151024 0.414213
445 1 0.0257823 0.12711 0.367574
450 1 0.0991856 0.15158 0.414047
447 1 0.0723553 0.126608 0.451981
453 1 0.123864 0.128623 0.37092
458 1 0.197642 0.151525 0.411852
461 1 0.222875 0.126176 0.370134
466 1 0.298551 0.151043 0.412188
469 1 0.321632 0.125344 0.368796
474 1 0.40016 0.148905 0.411771
477 1 0.425001 0.121706 0.373592
483 1 0.0482158 0.203225 0.419055
448 1 0.074306 0.178158 0.373692
491 1 0.148948 0.202297 0.412296
456 1 0.175721 0.177899 0.370938
464 1 0.272366 0.174727 0.36909
499 1 0.249236 0.202286 0.413329
472 1 0.37308 0.172322 0.371141
507 1 0.349809 0.198071 0.41389
480 1 0.473123 0.170488 0.373755
515 1 0.44837 0.195997 0.413519
485 1 0.0264929 0.227942 0.374346
490 1 0.100021 0.253255 0.414777
493 1 0.125261 0.228118 0.37176
496 1 0.174283 0.276218 0.375248
498 1 0.199513 0.251281 0.417398
501 1 0.225651 0.22927 0.372713
504 1 0.275645 0.275904 0.374641
506 1 0.300323 0.251357 0.415104
509 1 0.324367 0.224945 0.372298
512 1 0.372859 0.273756 0.371988
514 1 0.397149 0.248371 0.413901
517 1 0.424623 0.223352 0.374688
520 1 0.475679 0.272022 0.377091
523 1 0.0499279 0.303083 0.421941
525 1 0.0256212 0.327553 0.37665
488 1 0.0745939 0.278598 0.378115
531 1 0.148634 0.302393 0.419016
533 1 0.124813 0.328136 0.374723
539 1 0.251015 0.300368 0.416637
541 1 0.225941 0.327331 0.375068
549 1 0.323991 0.326097 0.371543
547 1 0.347133 0.299491 0.411978
557 1 0.425626 0.323678 0.373082
555 1 0.449429 0.297693 0.417351
528 1 0.0746927 0.377469 0.379683
530 1 0.101835 0.353801 0.41715
536 1 0.174529 0.378047 0.380566
538 1 0.198848 0.351837 0.420654
544 1 0.276925 0.377762 0.376915
546 1 0.301747 0.348291 0.419598
552 1 0.376054 0.374458 0.376394
554 1 0.399858 0.348469 0.415703
560 1 0.475742 0.372326 0.373083
563 1 0.0510902 0.402098 0.424527
565 1 0.0293436 0.426682 0.379087
571 1 0.149344 0.401967 0.423299
573 1 0.126102 0.427848 0.38172
579 1 0.252608 0.403765 0.417693
581 1 0.226868 0.427241 0.378515
589 1 0.326496 0.426045 0.377835
587 1 0.351456 0.399439 0.418264
597 1 0.424806 0.422479 0.377477
595 1 0.451142 0.396543 0.415121
562 1 0.00196477 0.449462 0.422046
1603 1 0.0498383 0.503205 0.421772
568 1 0.0760108 0.479372 0.379931
570 1 0.100623 0.452639 0.420327
576 1 0.176445 0.475536 0.37933
578 1 0.2028 0.453391 0.417558
584 1 0.276254 0.474087 0.374239
1619 1 0.253924 0.498963 0.421274
586 1 0.302811 0.45114 0.419793
592 1 0.378235 0.475076 0.378809
594 1 0.40073 0.448686 0.420725
600 1 0.476696 0.47265 0.3781
1635 1 0.453382 0.497389 0.420043
604 1 0.0504912 0.0533729 0.499276
605 1 0.0244757 0.0291908 0.541173
407 1 0.0740201 0.0276816 0.454675
609 1 0.0994868 0.000557499 0.49218
612 1 0.149503 0.0521786 0.492612
613 1 0.123887 0.0255735 0.534643
621 1 0.224659 0.0248939 0.53823
620 1 0.248109 0.0521592 0.495072
629 1 0.324109 0.0238933 0.538993
431 1 0.373954 0.0246534 0.456342
628 1 0.348896 0.0476988 0.499262
637 1 0.424624 0.0234963 0.538108
439 1 0.471866 0.0239051 0.4579
636 1 0.447813 0.0498231 0.498484
406 1 0.0259086 0.074407 0.450732
641 1 0.00309633 0.100672 0.498168
608 1 0.0759367 0.0789143 0.537378
649 1 0.0995002 0.103317 0.492342
414 1 0.124562 0.0780675 0.451982
616 1 0.172817 0.0772551 0.536916
657 1 0.197465 0.0988721 0.49469
422 1 0.222843 0.0735696 0.451699
624 1 0.273154 0.0750971 0.539166
430 1 0.324065 0.0738896 0.455066
665 1 0.29755 0.100435 0.494659
632 1 0.374979 0.0747884 0.53851
438 1 0.423936 0.0749286 0.45449
673 1 0.398153 0.100375 0.496145
640 1 0.471917 0.0731392 0.543935
3041 1 0.499082 0.0974849 0.50195
644 1 0.0504901 0.152029 0.499705
645 1 0.0260058 0.12745 0.541689
652 1 0.148971 0.154323 0.493926
653 1 0.125507 0.129661 0.536435
455 1 0.172754 0.126624 0.455045
463 1 0.273208 0.125827 0.452735
660 1 0.248329 0.151892 0.495903
661 1 0.223381 0.124719 0.536792
669 1 0.324321 0.122876 0.539973
471 1 0.373304 0.123623 0.450545
668 1 0.348696 0.14731 0.495222
677 1 0.424767 0.122256 0.540336
479 1 0.475866 0.121918 0.459797
676 1 0.450105 0.147308 0.500248
446 1 0.0236828 0.176761 0.459151
648 1 0.0768855 0.177185 0.538726
689 1 0.0989704 0.20367 0.496613
454 1 0.122993 0.177697 0.456322
656 1 0.175319 0.175124 0.537954
697 1 0.200337 0.199825 0.493859
462 1 0.223839 0.175442 0.45144
664 1 0.274863 0.174814 0.535373
470 1 0.324425 0.17427 0.45367
705 1 0.300018 0.200098 0.496283
672 1 0.37293 0.173129 0.537921
478 1 0.423521 0.171657 0.457468
713 1 0.401572 0.198241 0.501522
680 1 0.475262 0.17251 0.53957
3081 1 0.500498 0.198742 0.502248
684 1 0.0513475 0.253375 0.501238
685 1 0.0267799 0.227825 0.544241
487 1 0.0739499 0.228741 0.455819
692 1 0.14957 0.251734 0.500222
693 1 0.125718 0.226751 0.54016
495 1 0.174835 0.226205 0.455459
502 1 0.224403 0.276853 0.458813
700 1 0.247727 0.249858 0.497062
701 1 0.222635 0.225298 0.541635
503 1 0.274665 0.226338 0.456625
704 1 0.273171 0.273726 0.539607
510 1 0.324978 0.274762 0.46171
709 1 0.324659 0.224934 0.540051
511 1 0.375057 0.221825 0.457454
708 1 0.350238 0.248336 0.499591
712 1 0.376306 0.271168 0.540776
518 1 0.424835 0.271704 0.459553
519 1 0.474484 0.222025 0.45696
716 1 0.449448 0.24743 0.499945
486 1 0.0253004 0.276266 0.461357
725 1 0.0252225 0.326014 0.550564
527 1 0.0739372 0.331022 0.461557
729 1 0.0984086 0.305247 0.50454
494 1 0.123994 0.278795 0.46063
733 1 0.125107 0.328645 0.547428
696 1 0.172156 0.277783 0.545171
535 1 0.173744 0.328098 0.463133
737 1 0.199898 0.303691 0.502744
543 1 0.274049 0.324547 0.457309
741 1 0.224297 0.326329 0.542845
745 1 0.297041 0.300658 0.501018
749 1 0.324492 0.324693 0.539951
551 1 0.375364 0.322878 0.455005
753 1 0.40031 0.296725 0.49923
757 1 0.423331 0.321747 0.541458
559 1 0.475517 0.322481 0.458451
3121 1 0.500491 0.296661 0.499198
526 1 0.0252051 0.376711 0.462414
724 1 0.0509329 0.352808 0.509376
728 1 0.0743371 0.379024 0.549067
534 1 0.124108 0.379831 0.465738
732 1 0.149807 0.35343 0.506192
736 1 0.176103 0.375971 0.547878
542 1 0.225942 0.378012 0.459148
740 1 0.247226 0.349041 0.497504
744 1 0.272447 0.37517 0.539918
550 1 0.325534 0.374991 0.459738
748 1 0.349875 0.348183 0.498626
752 1 0.373889 0.373965 0.543216
558 1 0.425752 0.372037 0.456128
756 1 0.44973 0.348287 0.500687
760 1 0.475015 0.372317 0.540606
761 1 0.0022418 0.401995 0.508347
765 1 0.0252393 0.428531 0.548498
567 1 0.0758084 0.426997 0.462829
769 1 0.0997036 0.404477 0.50898
773 1 0.125599 0.428539 0.548861
575 1 0.177657 0.427479 0.459524
777 1 0.200745 0.401634 0.503177
583 1 0.277423 0.426916 0.460082
781 1 0.225155 0.428311 0.543897
785 1 0.301215 0.399724 0.499649
789 1 0.325883 0.424304 0.542464
591 1 0.375761 0.425384 0.461314
793 1 0.400381 0.398222 0.501216
599 1 0.475394 0.421237 0.457819
566 1 0.0261978 0.476002 0.463169
764 1 0.0513517 0.451557 0.504526
768 1 0.0754709 0.477518 0.541611
1809 1 0.101348 0.50283 0.503313
574 1 0.126766 0.475798 0.462748
772 1 0.151282 0.451205 0.50387
776 1 0.175952 0.474501 0.548654
582 1 0.227225 0.475468 0.464055
780 1 0.253115 0.450333 0.504014
784 1 0.277517 0.477094 0.542421
590 1 0.327174 0.476044 0.460243
788 1 0.351903 0.450518 0.501572
792 1 0.377035 0.474279 0.544152
598 1 0.42613 0.471626 0.459185
796 1 0.451698 0.446575 0.497973
603 1 0.047929 0.00104398 0.578188
607 1 0.0746904 0.0249375 0.62097
610 1 0.0995791 0.0506143 0.576676
611 1 0.149219 0.00133318 0.577042
615 1 0.17342 0.0260004 0.618673
618 1 0.199226 0.0533606 0.576686
623 1 0.274972 0.0239755 0.621702
626 1 0.298787 0.0496215 0.580284
631 1 0.374768 0.0255758 0.623184
634 1 0.399139 0.0480177 0.580205
639 1 0.473663 0.021184 0.624156
3002 1 0.498049 0.0487589 0.583748
606 1 0.0248081 0.0774972 0.620295
643 1 0.0502934 0.101603 0.582274
614 1 0.122969 0.0771357 0.617407
651 1 0.148406 0.101617 0.578468
622 1 0.226164 0.0757111 0.619113
659 1 0.251511 0.101933 0.578442
630 1 0.324102 0.0732725 0.621866
667 1 0.349262 0.0983522 0.582345
638 1 0.42252 0.0718482 0.626412
675 1 0.447787 0.0982911 0.585662
642 1 0.000961578 0.151579 0.586835
647 1 0.0755597 0.127139 0.624096
650 1 0.100811 0.15259 0.580152
655 1 0.175844 0.124081 0.621423
658 1 0.20007 0.15111 0.578801
663 1 0.275918 0.126852 0.618563
666 1 0.300916 0.149708 0.575404
671 1 0.373443 0.123437 0.623117
674 1 0.399621 0.149264 0.579957
3042 1 0.498854 0.146859 0.583213
679 1 0.472066 0.12433 0.626427
646 1 0.025558 0.176816 0.625728
683 1 0.0513676 0.200963 0.584739
654 1 0.126045 0.17625 0.622988
691 1 0.150277 0.20066 0.578678
662 1 0.224856 0.175815 0.6197
699 1 0.249603 0.200461 0.578597
670 1 0.324204 0.17468 0.622892
707 1 0.348897 0.198518 0.581009
678 1 0.423645 0.17138 0.624378
715 1 0.449103 0.196428 0.582168
719 1 0.473589 0.223001 0.626116
682 1 0.00175798 0.251177 0.588209
687 1 0.075885 0.226211 0.62665
690 1 0.102655 0.252367 0.585691
695 1 0.174896 0.226211 0.623541
698 1 0.198515 0.251219 0.584271
702 1 0.224503 0.275833 0.621809
703 1 0.273942 0.225169 0.624208
706 1 0.299225 0.249514 0.584328
710 1 0.326614 0.274816 0.620682
711 1 0.374968 0.22331 0.625326
717 1 0.426248 0.22306 0.541091
714 1 0.402183 0.246258 0.582569
718 1 0.424718 0.273282 0.62301
720 1 0.476253 0.271653 0.539529
3082 1 0.499536 0.248148 0.586523
686 1 0.0249307 0.277402 0.630674
723 1 0.0507944 0.301345 0.590184
688 1 0.0764956 0.278799 0.548291
727 1 0.0770179 0.325349 0.627616
694 1 0.125467 0.276958 0.630393
731 1 0.148564 0.302236 0.587858
735 1 0.17452 0.326625 0.628781
739 1 0.250625 0.30012 0.581262
743 1 0.275744 0.326103 0.619334
747 1 0.348838 0.29797 0.577936
751 1 0.373141 0.323453 0.626549
755 1 0.450875 0.297864 0.582025
759 1 0.475765 0.323305 0.626088
722 1 0.00160501 0.352352 0.593467
726 1 0.0240407 0.377096 0.636251
730 1 0.100877 0.353484 0.590229
734 1 0.12527 0.376633 0.632082
738 1 0.199893 0.349566 0.58745
742 1 0.225942 0.375003 0.624423
746 1 0.301316 0.351761 0.582038
750 1 0.32589 0.375001 0.626983
754 1 0.397561 0.347622 0.583573
758 1 0.424949 0.372175 0.623657
763 1 0.0487565 0.401618 0.591211
767 1 0.0741539 0.426603 0.63177
771 1 0.150396 0.402098 0.589247
775 1 0.176474 0.42505 0.632042
779 1 0.25007 0.402065 0.583519
783 1 0.276928 0.423609 0.624866
787 1 0.351507 0.400474 0.585886
791 1 0.378871 0.423606 0.62716
797 1 0.42614 0.422915 0.540573
795 1 0.449922 0.397811 0.584389
799 1 0.477055 0.423366 0.625423
762 1 0.000256812 0.452053 0.589953
766 1 0.0264122 0.478551 0.628176
770 1 0.0988472 0.452653 0.587814
774 1 0.126218 0.476502 0.6263
778 1 0.200951 0.450201 0.590258
782 1 0.2261 0.475854 0.632224
786 1 0.300848 0.450851 0.58433
790 1 0.327481 0.475489 0.624234
794 1 0.403375 0.448871 0.585051
798 1 0.429234 0.472629 0.628033
800 1 0.477309 0.471413 0.539241
3162 1 0.5018 0.447826 0.583826
801 1 -0.000168655 0.00167197 0.663569
804 1 0.0488625 0.0505423 0.663645
805 1 0.0250638 0.0259262 0.707782
809 1 0.101771 0.00177999 0.661716
812 1 0.150021 0.0518824 0.660964
813 1 0.125632 0.0283538 0.705156
817 1 0.197732 0.000964485 0.660728
820 1 0.248758 0.0480782 0.663386
821 1 0.222828 0.0259283 0.701631
825 1 0.29944 -0.00059736 0.664361
829 1 0.324926 0.0246015 0.706291
828 1 0.348905 0.0494823 0.664431
837 1 0.423448 0.0221661 0.709947
836 1 0.448025 0.0476477 0.667792
808 1 0.0740851 0.076629 0.70386
849 1 0.0993802 0.100608 0.661872
816 1 0.173913 0.0768159 0.699922
857 1 0.201551 0.100906 0.661217
824 1 0.274299 0.0766816 0.703422
865 1 0.300469 0.100501 0.661771
832 1 0.37535 0.0735834 0.70605
873 1 0.39827 0.0988947 0.667605
3241 1 0.497487 0.0981174 0.66848
840 1 0.469462 0.0741133 0.71033
844 1 0.0521451 0.154128 0.669208
845 1 0.0264843 0.126941 0.705174
852 1 0.153046 0.151363 0.662086
853 1 0.125598 0.125331 0.703022
861 1 0.224691 0.127278 0.705159
860 1 0.2497 0.151655 0.661885
869 1 0.325074 0.124997 0.708182
868 1 0.349673 0.149212 0.665481
877 1 0.424604 0.121477 0.708305
876 1 0.448812 0.149068 0.669252
881 1 0.000801061 0.200287 0.669115
848 1 0.0774889 0.177775 0.710041
889 1 0.101571 0.20341 0.666796
856 1 0.175566 0.17729 0.704721
897 1 0.200473 0.201309 0.661587
864 1 0.275077 0.17593 0.700722
905 1 0.299352 0.200889 0.660627
872 1 0.374284 0.171354 0.708031
913 1 0.399435 0.196007 0.666945
917 1 0.423383 0.220686 0.710768
880 1 0.472556 0.17297 0.710844
884 1 0.0517567 0.251342 0.667549
885 1 0.0256519 0.22634 0.709942
892 1 0.152743 0.251258 0.666884
893 1 0.128051 0.226632 0.708164
900 1 0.248485 0.250162 0.663035
901 1 0.224513 0.225915 0.706312
904 1 0.273795 0.275567 0.703908
909 1 0.324622 0.223709 0.707349
908 1 0.349741 0.250191 0.664897
912 1 0.375405 0.273824 0.706218
916 1 0.447479 0.247748 0.667995
920 1 0.474666 0.271402 0.708917
925 1 0.0261706 0.324718 0.715745
888 1 0.0752058 0.274781 0.710531
929 1 0.100704 0.30078 0.671811
933 1 0.126388 0.325206 0.711996
896 1 0.176268 0.277657 0.708593
937 1 0.20176 0.301731 0.668393
941 1 0.22531 0.326981 0.70881
945 1 0.299894 0.299822 0.662839
949 1 0.324651 0.324435 0.706798
953 1 0.399219 0.298866 0.663931
957 1 0.426981 0.323027 0.703567
3321 1 0.499133 0.298397 0.667933
924 1 0.0512921 0.349115 0.67154
928 1 0.0742565 0.375924 0.713204
932 1 0.150312 0.352666 0.671778
936 1 0.177284 0.376456 0.713493
940 1 0.252794 0.349443 0.666987
944 1 0.276644 0.375467 0.708803
948 1 0.349541 0.349331 0.665983
952 1 0.375452 0.371829 0.707145
956 1 0.450372 0.349478 0.665205
960 1 0.476078 0.374061 0.708338
961 1 0.000524463 0.403742 0.677431
965 1 0.0280912 0.427906 0.714553
969 1 0.0996728 0.400523 0.673435
973 1 0.124532 0.425743 0.712319
977 1 0.20096 0.399867 0.670672
981 1 0.22619 0.42762 0.707974
985 1 0.302714 0.400713 0.665788
989 1 0.328237 0.424767 0.708657
993 1 0.401706 0.396871 0.667972
997 1 0.426784 0.423942 0.708451
964 1 0.0510029 0.452913 0.672395
968 1 0.0758784 0.475095 0.712954
972 1 0.151153 0.452907 0.669943
976 1 0.174238 0.476297 0.712836
980 1 0.255341 0.449913 0.668252
984 1 0.277519 0.475603 0.708913
988 1 0.351937 0.449938 0.663776
992 1 0.375813 0.476042 0.706329
2033 1 0.403299 0.499339 0.666453
996 1 0.454002 0.447425 0.66785
1000 1 0.479651 0.472133 0.707645
4401 1 0.502216 0.49955 0.665967
802 1 -0.000493688 0.0516296 0.746432
803 1 0.0496144 -0.000323657 0.74592
807 1 0.0756372 0.0269887 0.789049
810 1 0.100148 0.0517746 0.746524
811 1 0.149206 -0.000267728 0.744585
815 1 0.173502 0.0257839 0.78309